Executable      : siesta
Version         : 5.2.1
Architecture    : x86_64
Compiler version: GNU-13.3.0
Compiler flags  : -march=nocona -mtune=haswell -ftree-vectorize -fPIC -fstack-protector-strong -fno-plt -O2 -ffunction-sections -pipe -isystem <prefix>/include -I<prefix>/_build_env/include -fdebug-prefix-map=<prefix>/work=/usr/local/src/conda/siesta-5.2.1 -fdebug-prefix-map=<prefix>=/usr/local/src/conda-prefix -I<prefix>/lib -fallow-argument-mismatch -O3
Parallelisations: none
NetCDF support
NetCDF-4 support
Lua support
DFT-D3 support

Runtime information:
* Directory : /home/samba/homes/convidat/Desktop/SIESTA_examples-main/MD_reaction/prova
* Running in serial mode.
>> Start of run:  19-MAR-2025  16:09:10

                           *********************** 
                           *  WELCOME TO SIESTA  * 
                           *********************** 

 NOTE: Siesta V5 introduces some new defaults for basis-set generation
 NOTE: which might lead to slightly different numerical results.
 NOTE: Please see the manual for full details and compatibility measures.


reinit: Reading from file xoc.fdf

reinit: -----------------------------------------------------------------------
reinit: System Name: H2 + O2 -> H2O2 reaction
reinit: -----------------------------------------------------------------------
reinit: System Label: xoc
reinit: -----------------------------------------------------------------------

initatom: Reading input for the pseudopotentials and atomic orbitals ----------
Species number:   1 Atomic number:    8 Label: O
Species number:   2 Atomic number:    1 Label: H

Ground state valence configuration (from tables):   2s02  2p04  3d00  4f00
Ground state valence configuration (from tables):   1s01  2p00  3d00  4f00

---- Processing specs for species: O
Reading pseudopotential information in formatted form from:
  O.psf

---- Processing specs for species: H
Reading pseudopotential information in unformatted form from:
  H.vps

---- Pseudopotential check for O 

Pseudopotential generated from a fully relativistic atomic calculation
There are spin-orbit semi-local pseudopotentials available

Pseudized shells:
2s( 2.00) rc: 1.14
2p( 4.00) rc: 1.14
3d( 0.00) rc: 1.14
4f( 0.00) rc: 1.14
Valence configuration for ps generation: (assumed as above)

---- Pseudopotential check for H 

Pseudized shells:
1s( 1.00) rc: 1.25
2p( 0.00) rc: 1.25
3d( 0.00) rc: 1.25
4f( 0.00) rc: 1.25
Valence configuration for ps generation: (assumed as above)
For O, standard SIESTA heuristics set lmxkb to 3
 (one more than the basis l, including polarization orbitals).
Use PS.lmax or PS.KBprojectors blocks to override.
For H, standard SIESTA heuristics set lmxkb to 2
 (one more than the basis l, including polarization orbitals).
Use PS.lmax or PS.KBprojectors blocks to override.

<basis_specs>
===============================================================================
O                    Z=   8    Mass=  15.999        Charge= 0.17977+309
Lmxo=2 Lmxkb= 3    BasisType=split      Semic=F
L=0  Nsemic=0  Cnfigmx=2
          i=1  nzeta=1  polorb=0  (2s)
            splnorm:   0.15000    
               vcte:    40.000    
               rinn:  -0.90000    
               qcoe:    0.0000    
               qyuk:    0.0000    
               qwid:   0.10000E-01
                rcs:    0.0000    
            lambdas:    1.0000    
L=1  Nsemic=0  Cnfigmx=2
          i=1  nzeta=1  polorb=1  (2p)  (to be polarized perturbatively)
            splnorm:   0.15000    
               vcte:    40.000    
               rinn:  -0.90000    
               qcoe:    0.0000    
               qyuk:    0.0000    
               qwid:   0.10000E-01
                rcs:    0.0000    
            lambdas:    1.0000    
L=2  Nsemic=0  Cnfigmx=3
          i=1  nzeta=0  polorb=0  (3d)  (perturbative polarization orbital) (from 2p)
-------------------------------------------------------------------------------
L=0  Nkbl=1  erefs: 0.17977+309
L=1  Nkbl=1  erefs: 0.17977+309
L=2  Nkbl=1  erefs: 0.17977+309
L=3  Nkbl=1  erefs: 0.17977+309
===============================================================================
</basis_specs>

Using PAO.SplitTailNorm
atom: Called for O                     (Z =   8)
Maximum radius (at nrval) set to   50.00000 8518

read_vps: Pseudopotential generation method:
read_vps: ATM3      Troullier-Martins                       
Valence charge in pseudo generation:    6.00000

read_vps: Pseudopotential includes a core correction:
read_vps: Pseudo-core for xc-correction

xc_check: Exchange-correlation functional:
xc_check: GGA Perdew, Burke & Ernzerhof 1996
V l=0 = -2*Zval/r beyond r=  1.1355
V l=1 = -2*Zval/r beyond r=  1.1355
V l=2 = -2*Zval/r beyond r=  1.1309
V l=3 = -2*Zval/r beyond r=  1.1286
All V_l potentials equal beyond r=  1.1355
This should be close to max(r_c) in ps generation
All pots = -2*Zval/r beyond r=  1.1355
Using small-core scheme (local charge) for Vlocal

VLOCAL_FROM_CHLOCAL: 99.0% of the norm of Vloc inside     33.667 Ry
VLOCAL_FROM_CHLOCAL: 99.9% of the norm of Vloc inside     76.727 Ry
atom: Maximum radius for chlocal:    1.37241
atom: Maximum radius for r*vlocal+2*Zval:    1.25469

KBgen: Kleinman-Bylander projectors: 
GHOST: No ghost state for L =  0
   l= 0   rc=  1.357289   el= -1.759790   Ekb=  9.151830   kbcos=  0.327271
GHOST: No ghost state for L =  1
   l= 1   rc=  1.345038   el= -0.663797   Ekb= -7.991133   kbcos= -0.393963
GHOST: No ghost state for L =  2
   l= 2   rc=  1.779310   el=  0.012956   Ekb= -1.983219   kbcos= -0.003702
GHOST: No ghost state for L =  3
   l= 3   rc=  2.085579   el=  0.019231   Ekb= -0.873623   kbcos= -0.000360

KBgen: Total number of Kleinman-Bylander projectors:  16
atom: -------------------------------------------------------------------------

atom: SANKEY-TYPE ORBITALS:

SPLIT: Orbitals with angular momentum L= 0

SPLIT: Basis orbitals for state 2s

SPLIT: PAO cut-off radius determined from an
SPLIT: energy shift=  0.010000 Ry
Split based on tail norm

   izeta = 1
                 lambda =    1.000000
                     rc =    3.532490
                 energy =   -1.748682
                kinetic =    1.612754
    potential(screened) =   -3.361436
       potential(ionic) =  -11.306460

SPLIT: Orbitals with angular momentum L= 1

SPLIT: Basis orbitals for state 2p

SPLIT: PAO cut-off radius determined from an
SPLIT: energy shift=  0.010000 Ry
Split based on tail norm

   izeta = 1
                 lambda =    1.000000
                     rc =    4.299534
                 energy =   -0.652755
                kinetic =    4.913628
    potential(screened) =   -5.566382
       potential(ionic) =  -13.292903

POLgen: Perturbative polarization orbital with L=  2

POLgen: Polarization orbital for state 2p
Split based on tail norm

   izeta = 1
                     rc =    4.299534
                 energy =    2.258078
                kinetic =    4.298689
    potential(screened) =   -2.040611
       potential(ionic) =   -8.188336
atom: Total number of Sankey-type orbitals:  9

atm_pop: Valence configuration (for local Pseudopot. screening):
 2s( 2.00)                                                            
 2p( 4.00)                                                            
 3d( 0.00)                                                            
Vna: chval, zval:    6.00000   6.00000

Vna:  Cut-off radius for the neutral-atom potential:   4.299534
comcore: Pseudo-core radius Rcore=  1.364142

atom: _________________________________________________________________________

<basis_specs>
===============================================================================
H                    Z=   1    Mass=  1.0080        Charge= 0.17977+309
Lmxo=1 Lmxkb= 2    BasisType=split      Semic=F
L=0  Nsemic=0  Cnfigmx=1
          i=1  nzeta=1  polorb=1  (1s)  (to be polarized perturbatively)
            splnorm:   0.15000    
               vcte:    40.000    
               rinn:  -0.90000    
               qcoe:    0.0000    
               qyuk:    0.0000    
               qwid:   0.10000E-01
                rcs:    0.0000    
            lambdas:    1.0000    
L=1  Nsemic=0  Cnfigmx=2
          i=1  nzeta=0  polorb=0  (2p)  (perturbative polarization orbital) (from 1s)
-------------------------------------------------------------------------------
L=0  Nkbl=1  erefs: 0.17977+309
L=1  Nkbl=1  erefs: 0.17977+309
L=2  Nkbl=1  erefs: 0.17977+309
===============================================================================
</basis_specs>

Using PAO.SplitTailNorm
atom: Called for H                     (Z =   1)
Maximum radius (at nrval) set to   50.00000 8518

read_vps: Pseudopotential generation method:
read_vps: ATM3      Troullier-Martins                       
Valence charge in pseudo generation:    1.00000

xc_check: Exchange-correlation functional:
xc_check: GGA Perdew, Burke & Ernzerhof 1996
V l=0 = -2*Zval/r beyond r=  1.2384
V l=1 = -2*Zval/r beyond r=  1.2321
V l=2 = -2*Zval/r beyond r=  1.2235
All V_l potentials equal beyond r=  1.2371
This should be close to max(r_c) in ps generation
All pots = -2*Zval/r beyond r=  1.2384
Using small-core scheme (local charge) for Vlocal

VLOCAL_FROM_CHLOCAL: 99.0% of the norm of Vloc inside     28.363 Ry
VLOCAL_FROM_CHLOCAL: 99.9% of the norm of Vloc inside     64.639 Ry
atom: Maximum radius for chlocal:    1.44620
atom: Maximum radius for r*vlocal+2*Zval:    1.31026

KBgen: Kleinman-Bylander projectors: 
GHOST: No ghost state for L =  0
   l= 0   rc=  1.362769   el= -0.477200   Ekb= -2.026093   kbcos= -0.345051
GHOST: No ghost state for L =  1
   l= 1   rc=  1.431710   el=  0.007219   Ekb= -0.445752   kbcos= -0.023729
GHOST: No ghost state for L =  2
   l= 2   rc=  1.471166   el=  0.012944   Ekb= -0.141918   kbcos= -0.003041

KBgen: Total number of Kleinman-Bylander projectors:   9
atom: -------------------------------------------------------------------------

atom: SANKEY-TYPE ORBITALS:

SPLIT: Orbitals with angular momentum L= 0

SPLIT: Basis orbitals for state 1s

SPLIT: PAO cut-off radius determined from an
SPLIT: energy shift=  0.010000 Ry
Split based on tail norm

   izeta = 1
                 lambda =    1.000000
                     rc =    5.232664
                 energy =   -0.466073
                kinetic =    0.944036
    potential(screened) =   -1.410108
       potential(ionic) =   -1.935607

POLgen: Perturbative polarization orbital with L=  1

POLgen: Polarization orbital for state 1s
Split based on tail norm

   izeta = 1
                     rc =    5.232664
                 energy =    0.681103
                kinetic =    1.331928
    potential(screened) =   -0.650824
       potential(ionic) =   -1.138826
atom: Total number of Sankey-type orbitals:  4

atm_pop: Valence configuration (for local Pseudopot. screening):
 1s( 1.00)                                                            
 2p( 0.00)                                                            
Vna: chval, zval:    1.00000   1.00000

Vna:  Cut-off radius for the neutral-atom potential:   5.232664

atom: _________________________________________________________________________

prinput: Basis input 

PAO.BasisType split     

%block ChemicalSpeciesLabel
    1    8 O                       # Species index, atomic number, species label
    2    1 H                       # Species index, atomic number, species label
%endblock ChemicalSpeciesLabel

%block PAO.Basis                 # Define Basis set
# WARNING: This information might be incomplete!
O                     2                    # Species label, number of l-shells
 n=2   0   1                         # n, l, Nzeta 
   3.532   
   1.000   
 n=2   1   1 P   1                   # n, l, Nzeta, Polarization, NzetaPol
   4.300   
   1.000   
H                     1                    # Species label, number of l-shells
 n=1   0   1 P   1                   # n, l, Nzeta, Polarization, NzetaPol
   5.233   
   1.000   
%endblock PAO.Basis

prinput: ----------------------------------------------------------------------

Dumping basis to NetCDF file O.ion.nc
Dumping basis to NetCDF file H.ion.nc
coor:   Atomic-coordinates input format  =     Cartesian coordinates
coor:                                          (in Angstroms)

ioxv: Reading coordinates and velocities from file
! Info in XV file prevails over previous structure input
WARNING: xoc.VERLET_RESTART not found--reading only XV file and moving back 1 time step using Euler

siesta: Atomic coordinates (Bohr) and species
siesta:      2.54735  -0.00100  -0.00070  1        1
siesta:      5.01155  -0.00100  -0.00070  1        2
siesta:     12.94052   0.01600   0.01130  2        3
siesta:     14.34566   0.01600   0.01130  2        4

siesta: System type = chain     

initatomlists: Number of atoms, orbitals, and projectors:      4    26    50

coxmol: Writing XMOL coordinates into file xoc.xyz                                                                                                                                                                                                                             

siesta: ******************** Simulation parameters ****************************
siesta:
siesta: The following are some of the parameters of the simulation.
siesta: A complete list of the parameters used, including default values,
siesta: can be found in file out.fdf
siesta:
redata: Spin configuration                          = none
redata: Number of spin components                   = 1
redata: Time-Reversal Symmetry                      = T
redata: Spin spiral                                 = F
redata: Long output                                 =   F
redata: Number of Atomic Species                    =        2
redata: Charge density info will appear in .RHO file
redata: Write Mulliken charges (when)               = none
redata: Write Mulliken Pop.                         = NO
redata: Write Hirshfeld charges (when)              = none
redata: Write Voronoi charges (when)                = none
redata: Write spin charge (when)                    = none
redata: Matel table size (NRTAB)                    =     1024
redata: Mesh Cutoff                                 =   200.0000 Ry
redata: Net charge of the system                    =     0.0000 |e|
redata: Min. number of SCF Iter                     =        0
redata: Max. number of SCF Iter                     =      250
redata: SCF convergence failure will abort job
redata: SCF mix quantity                            = Hamiltonian
redata: Mix DM or H after convergence               =   F
redata: Recompute H after scf cycle                 =   F
redata: Mix DM in first SCF step                    =   T
redata: Write Pulay info on disk                    =   F
redata: New DM Occupancy tolerance                  = 0.000000000001
redata: No kicks to SCF
redata: DM Mixing Weight for Kicks                  =     0.5000
redata: Require Harris convergence for SCF          =   F
redata: Harris energy tolerance for SCF             =     0.000100 eV
redata: Require DM convergence for SCF              =   T
redata: DM tolerance for SCF                        =     0.000300
redata: Require EDM convergence for SCF             =   F
redata: EDM tolerance for SCF                       =     0.001000 eV
redata: Require H convergence for SCF               =   T
redata: Hamiltonian tolerance for SCF               =     0.001000 eV
redata: Require (free) Energy convergence for SCF   =   F
redata: (free) Energy tolerance for SCF             =     0.000100 eV
redata: Using DFT-D3 dispersion                     =   F
redata: Using Saved Data (generic)                  =   F
redata: Use continuation files for DM               =   T
redata: Neglect nonoverlap interactions             =   F
redata: Method of Calculation                       = Diagonalization
redata: Electronic Temperature                      =   290.1130 K
redata: Fix the spin of the system                  =   F
redata: Max. number of TDED Iter                    =        1
redata: Number of TDED substeps                     =        3
redata: Dynamics option                             = Verlet MD run
redata: Initial MD time step                        =        1
redata:   Final MD time step                        =      100
redata: Length of MD time step                      =     1.0000 fs
redata: Initial Temperature of MD run               =     0.0000 K
redata: Perform a MD quench                         =   F
mix.SCF: Pulay mixing                            = Pulay
mix.SCF:    Variant                              = stable
mix.SCF:    History steps                        = 6
mix.SCF:    Linear mixing weight                 =     0.020000
mix.SCF:    Mixing weight                        =     0.020000
mix.SCF:    SVD condition                        = 0.1000E-07
redata: Save all siesta data in one NC              =   F
redata: ***********************************************************************

%block SCF.Mixers
  Pulay
%endblock SCF.Mixers

%block SCF.Mixer.Pulay
  # Mixing method
  method pulay
  variant stable

  # Mixing options
  weight 0.0200
  weight.linear 0.0200
  history 6
%endblock SCF.Mixer.Pulay

Size of DM history Fstack: 1
Total number of electrons:    14.000000
Total ionic charge:    14.000000
 Kpoints in:            1 . Kpoints trimmed:            1

siesta: k-grid: Number of k-points = 1
siesta: k-points from Monkhorst-Pack grid
siesta: k-cutoff (effective) =     5.000 Ang
siesta: k-point supercell and displacements
siesta: k-grid:     1     0     0      0.000
siesta: k-grid:     0     1     0      0.000
siesta: k-grid:     0     0     1      0.000

diag: Algorithm                                     = D&C
diag: Used triangular part                          = Lower
diag: Absolute tolerance                            =  0.100E-15
diag: Orthogonalization factor                      =  0.100E-05
diag: Memory factor                                 =  1.0000


ts: **************************************************************
ts: Save H and S matrices                           =    F
ts: Save DM and EDM matrices                        =    F
ts: Only save the overlap matrix S                  =    F
ts: **************************************************************

************************ Begin: TS CHECKS AND WARNINGS ************************
************************ End: TS CHECKS AND WARNINGS **************************


                     ====================================
                        Begin MD step =      1
                     ====================================

outcell: Unit cell vectors (Ang):
       10.000004    0.000000    0.000000
        0.000000   10.000004    0.000000
        0.000000    0.000000   10.000004

outcell: Cell vector modules (Ang)   :   10.000004   10.000004   10.000004
outcell: Cell angles (23,13,12) (deg):     90.0000     90.0000     90.0000
outcell: Cell volume (Ang**3)        :   1000.0012
Gamma-point calculation with multiply-connected orbital pairs
Gamma-point calculation with multiply-connected orbital pairs
Folding of H and S implicitly performed
Folding of H and S implicitly performed
<dSpData1D:S at geom step 1
  <sparsity:sparsity for geom step 1
    nrows_g=26 nrows=26 sparsity=1.0000 nnzs=676, refcount: 7>
  <dData1D:(new from dSpData1D) n=676, refcount: 1>
refcount: 1>
new_DM -- step:     1
Initializing Density Matrix...

Attempting to read DM from file... Failed...
DM filled with atomic data:
<dSpData2D:DM initialized from atoms
  <sparsity:sparsity for geom step 1
    nrows_g=26 nrows=26 sparsity=1.0000 nnzs=676, refcount: 8>
  <dData2D:DM n=676 m=1, refcount: 1>
refcount: 1>
No. of atoms with KB's overlaping orbs in proc 0. Max # of overlaps:       4      22

InitMesh: MESH = 90 x 90 x 90 = 729000
InitMesh: Mesh cutoff (required, used) =   200.000   223.865 Ry
New grid distribution [1]: sub = 2

stepf: Fermi-Dirac step function

siesta: Program's energy decomposition (eV):
siesta: Ebs     =      -209.896447
siesta: Eions   =      1581.702395
siesta: Ena     =       338.340178
siesta: Ekin    =       624.493279
siesta: Enl     =       -90.745625
siesta: Eso     =         0.000000
siesta: Edftu   =         0.000000
siesta: DEna    =        14.378264
siesta: DUscf   =         1.600491
siesta: DUext   =         0.000000
siesta: Ex      =      -190.457774
siesta: Ec      =       -13.816585
siesta: Exc     =      -204.274358
siesta: EbV     =         0.000000
siesta: eta*DQ  =         0.000000
siesta: Emadel  =         0.000000
siesta: Emeta   =         0.000000
siesta: Emolmec =         0.000000
siesta: Ekinion =         0.000000
siesta: Eharris =      -900.351095
siesta: Etot    =      -897.910166
siesta: FreeEng =      -897.979481

        iscf     Eharris(eV)        E_KS(eV)     FreeEng(eV)     dDmax    Ef(eV) dHmax(eV)
   scf:    1     -900.351095     -897.910166     -897.979481  0.774851 -4.685393  2.426614
timer: Routine,Calls,Time,% = IterSCF        1       0.566  24.96
   scf:    2     -897.948120     -897.929201     -897.998515  0.001845 -4.718030  2.360512
   scf:    3     -898.370977     -898.214207     -898.283522  0.064671 -5.798367  0.208307
   scf:    4     -898.214240     -898.215604     -898.284918  0.009113 -5.713225  0.384145
   scf:    5     -898.218341     -898.217515     -898.286830  0.008600 -5.925958  0.060200
   scf:    6     -898.217900     -898.217818     -898.287132  0.002372 -5.906166  0.016177
mix: Pulay -- inversion failed, > SVD [rank/size] 4 / 5
   scf:    7     -898.217830     -898.217824     -898.287139  0.000088 -5.907349  0.013547
   scf:    8     -898.217849     -898.217839     -898.287154  0.000410 -5.909658  0.002232
   scf:    9     -898.217840     -898.217839     -898.287154  0.000317 -5.910220  0.000208
   scf:   10     -898.217839     -898.217839     -898.287154  0.000004 -5.910179  0.000204

SCF Convergence by DM+H criterion
max |DM_out - DM_in|         :     0.0000044282
max |H_out - H_in|      (eV) :     0.0002038163
SCF cycle converged after 10 iterations

Using DM_out to compute the final energy and forces
No. of atoms with KB's overlaping orbs in proc 0. Max # of overlaps:       4      22

siesta: E_KS(eV) =             -898.2178

siesta: E_KS - E_eggbox =      -898.2178

siesta: Atomic forces (eV/Ang):
----------------------------------------
   Tot    0.000546   -0.000415   -0.000281
----------------------------------------
   Max    4.212665
   Res    1.717408    sqrt( Sum f_i^2 / 3N )
----------------------------------------
   Max    4.212665    constrained

Stress tensor Voigt[x,y,z,yz,xz,xy] (kbar):      -21.23       -0.42       -0.25       -0.10        0.05        0.26
(Free)E + p*V (eV/cell)     -893.7335
Target enthalpy (eV/cell)     -898.2872

siesta: Stress tensor (static) (eV/Ang**3):
        -0.003070   -0.000000   -0.000000
        -0.000000    0.000006    0.000000
        -0.000000    0.000000    0.000006

siesta: Pressure (static):          1.63329830  kBar

siesta: Stress tensor (total) (eV/Ang**3):
        -0.013248    0.000163    0.000029
         0.000163   -0.000259   -0.000060
         0.000029   -0.000060   -0.000154

siesta: Pressure (total):          7.29581104  kBar

siesta: Temp_ion =   13671.154 K

                     ====================================
                        Begin MD step =      2
                     ====================================

outcell: Unit cell vectors (Ang):
       10.000004    0.000000    0.000000
        0.000000   10.000004    0.000000
        0.000000    0.000000   10.000004

outcell: Cell vector modules (Ang)   :   10.000004   10.000004   10.000004
outcell: Cell angles (23,13,12) (deg):     90.0000     90.0000     90.0000
outcell: Cell volume (Ang**3)        :   1000.0012
<dSpData1D:S at geom step 2
  <sparsity:sparsity for geom step 2
    nrows_g=26 nrows=26 sparsity=.9763 nnzs=660, refcount: 7>
  <dData1D:(new from dSpData1D) n=660, refcount: 1>
refcount: 1>
new_DM -- step:     2
Re-using DM from previous geometries...
Number of DMs in history: 1
 DM extrapolation coefficients: 
1   1.00000
New DM after history re-use:
<dSpData2D:SpM extrapolated using coords
  <sparsity:sparsity for geom step 2
    nrows_g=26 nrows=26 sparsity=.9763 nnzs=660, refcount: 9>
  <dData2D:(temp array for extrapolation) n=660 m=1, refcount: 1>
refcount: 1>
No. of atoms with KB's overlaping orbs in proc 0. Max # of overlaps:       4      18

InitMesh: MESH = 90 x 90 x 90 = 729000
InitMesh: Mesh cutoff (required, used) =   200.000   223.865 Ry
New grid distribution [1]: sub = 2

        iscf     Eharris(eV)        E_KS(eV)     FreeEng(eV)     dDmax    Ef(eV) dHmax(eV)
   scf:    1     -898.117107     -898.302178     -898.371493  0.012561 -5.748535  0.165684
   scf:    2     -898.300127     -898.301900     -898.371207  0.011365 -5.884668  0.130094
   scf:    3     -898.303195     -898.302649     -898.371962  0.005081 -5.840805  0.070701
   scf:    4     -898.302661     -898.302792     -898.372103  0.009856 -5.853351  0.014616
   scf:    5     -898.302810     -898.302837     -898.372152  0.006292 -5.854748  0.012490
   scf:    6     -898.302811     -898.302827     -898.372141  0.001552 -5.867464  0.016103
   scf:    7     -898.302858     -898.302854     -898.372168  0.003026 -5.864628  0.000597
   scf:    8     -898.302854     -898.302854     -898.372168  0.000132 -5.864885  0.000294

SCF Convergence by DM+H criterion
max |DM_out - DM_in|         :     0.0001315401
max |H_out - H_in|      (eV) :     0.0002939933
SCF cycle converged after 8 iterations

Using DM_out to compute the final energy and forces
No. of atoms with KB's overlaping orbs in proc 0. Max # of overlaps:       4      18

siesta: E_KS(eV) =             -898.3029

siesta: Atomic forces (eV/Ang):
----------------------------------------
   Tot    0.000701    0.000142    0.000215
----------------------------------------
   Max    3.092507
   Res    1.285004    sqrt( Sum f_i^2 / 3N )
----------------------------------------
   Max    3.092507    constrained

Stress tensor Voigt[x,y,z,yz,xz,xy] (kbar):      -21.12       -0.42       -0.27       -0.11       -0.22        0.07
(Free)E + p*V (eV/cell)     -893.8338
Target enthalpy (eV/cell)     -898.3722

siesta: Stress tensor (static) (eV/Ang**3):
        -0.003007   -0.000118   -0.000165
        -0.000117    0.000000   -0.000008
        -0.000165   -0.000008   -0.000006

siesta: Pressure (static):          1.60874079  kBar

siesta: Stress tensor (total) (eV/Ang**3):
        -0.013185    0.000046   -0.000136
         0.000046   -0.000265   -0.000068
        -0.000136   -0.000068   -0.000166

siesta: Pressure (total):          7.27125353  kBar

siesta: Temp_ion =   13836.861 K

                     ====================================
                        Begin MD step =      3
                     ====================================

outcell: Unit cell vectors (Ang):
       10.000004    0.000000    0.000000
        0.000000   10.000004    0.000000
        0.000000    0.000000   10.000004

outcell: Cell vector modules (Ang)   :   10.000004   10.000004   10.000004
outcell: Cell angles (23,13,12) (deg):     90.0000     90.0000     90.0000
outcell: Cell volume (Ang**3)        :   1000.0012
Gamma-point calculation with multiply-connected orbital pairs
Gamma-point calculation with multiply-connected orbital pairs
Folding of H and S implicitly performed
Folding of H and S implicitly performed
<dSpData1D:S at geom step 3
  <sparsity:sparsity for geom step 3
    nrows_g=26 nrows=26 sparsity=1.0000 nnzs=676, refcount: 7>
  <dData1D:(new from dSpData1D) n=676, refcount: 1>
refcount: 1>
new_DM -- step:     3
Re-using DM from previous geometries...
Number of DMs in history: 1
 DM extrapolation coefficients: 
1   1.00000
New DM after history re-use:
<dSpData2D:SpM extrapolated using coords
  <sparsity:sparsity for geom step 3
    nrows_g=26 nrows=26 sparsity=1.0000 nnzs=676, refcount: 9>
  <dData2D:(temp array for extrapolation) n=676 m=1, refcount: 1>
refcount: 1>
Note: For starting DM, Qtot, Tr[D*S] =         14.00000000         13.95905337
No. of atoms with KB's overlaping orbs in proc 0. Max # of overlaps:       4      22

InitMesh: MESH = 90 x 90 x 90 = 729000
InitMesh: Mesh cutoff (required, used) =   200.000   223.865 Ry
New grid distribution [1]: sub = 2

        iscf     Eharris(eV)        E_KS(eV)     FreeEng(eV)     dDmax    Ef(eV) dHmax(eV)
   scf:    1     -898.133679     -898.427569     -898.496883  0.019886 -5.416475  0.510529
   scf:    2     -898.418942     -898.426099     -898.495338  0.021425 -5.867431  0.245653
   scf:    3     -898.430489     -898.428523     -898.497813  0.008281 -5.773589  0.155440
   scf:    4     -898.427886     -898.429306     -898.498581  0.025149 -5.801543  0.042644
   scf:    5     -898.429604     -898.429803     -898.499116  0.016863 -5.805647  0.034703
   scf:    6     -898.429866     -898.429836     -898.499149  0.000324 -5.829513  0.026459
   scf:    7     -898.429956     -898.429919     -898.499234  0.003102 -5.827141  0.001689
   scf:    8     -898.429918     -898.429919     -898.499234  0.000425 -5.827524  0.001068
   scf:    9     -898.429919     -898.429919     -898.499234  0.000075 -5.827843  0.000826

SCF Convergence by DM+H criterion
max |DM_out - DM_in|         :     0.0000752141
max |H_out - H_in|      (eV) :     0.0008263589
SCF cycle converged after 9 iterations

Using DM_out to compute the final energy and forces
No. of atoms with KB's overlaping orbs in proc 0. Max # of overlaps:       4      22

siesta: E_KS(eV) =             -898.4299

siesta: Atomic forces (eV/Ang):
----------------------------------------
   Tot   -0.000233    0.000051    0.000108
----------------------------------------
   Max    1.042366
   Res    0.425673    sqrt( Sum f_i^2 / 3N )
----------------------------------------
   Max    1.042366    constrained

Stress tensor Voigt[x,y,z,yz,xz,xy] (kbar):      -18.66       -0.43       -0.27       -0.11       -0.29       -0.02
(Free)E + p*V (eV/cell)     -894.4731
Target enthalpy (eV/cell)     -898.4992

siesta: Stress tensor (static) (eV/Ang**3):
        -0.001355   -0.000040   -0.000006
        -0.000040    0.000003   -0.000001
        -0.000006   -0.000001    0.000004

siesta: Pressure (static):          0.71936318  kBar

siesta: Stress tensor (total) (eV/Ang**3):
        -0.011644   -0.000014   -0.000179
        -0.000014   -0.000267   -0.000069
        -0.000179   -0.000069   -0.000167

siesta: Pressure (total):          6.45051079  kBar

siesta: Temp_ion =   14123.534 K

                     ====================================
                        Begin MD step =      4
                     ====================================

outcell: Unit cell vectors (Ang):
       10.000004    0.000000    0.000000
        0.000000   10.000004    0.000000
        0.000000    0.000000   10.000004

outcell: Cell vector modules (Ang)   :   10.000004   10.000004   10.000004
outcell: Cell angles (23,13,12) (deg):     90.0000     90.0000     90.0000
outcell: Cell volume (Ang**3)        :   1000.0012
<dSpData1D:S at geom step 4
  <sparsity:sparsity for geom step 4
    nrows_g=26 nrows=26 sparsity=1.0000 nnzs=676, refcount: 7>
  <dData1D:(new from dSpData1D) n=676, refcount: 1>
refcount: 1>
new_DM -- step:     4
Re-using DM from previous geometries...
Number of DMs in history: 1
 DM extrapolation coefficients: 
1   1.00000
New DM after history re-use:
<dSpData2D:SpM extrapolated using coords
  <sparsity:sparsity for geom step 4
    nrows_g=26 nrows=26 sparsity=1.0000 nnzs=676, refcount: 9>
  <dData2D:(temp array for extrapolation) n=676 m=1, refcount: 1>
refcount: 1>
Note: For starting DM, Qtot, Tr[D*S] =         14.00000000         13.94988548
No. of atoms with KB's overlaping orbs in proc 0. Max # of overlaps:       4      22

InitMesh: MESH = 90 x 90 x 90 = 729000
InitMesh: Mesh cutoff (required, used) =   200.000   223.865 Ry
New grid distribution [1]: sub = 2

        iscf     Eharris(eV)        E_KS(eV)     FreeEng(eV)     dDmax    Ef(eV) dHmax(eV)
   scf:    1     -897.995147     -898.333776     -898.403086  0.021079 -5.303504  0.628465
   scf:    2     -898.292587     -898.322431     -898.391028  0.079758 -5.848796  0.394904
   scf:    3     -898.339207     -898.331969     -898.401058  0.031377 -5.724534  0.263083
   scf:    4     -898.326324     -898.334403     -898.403537  0.072586 -5.769665  0.093656
   scf:    5     -898.335923     -898.336683     -898.405993  0.039260 -5.775292  0.037687
   scf:    6     -898.336743     -898.336721     -898.406034  0.002742 -5.780617  0.038698
   scf:    7     -898.336935     -898.336856     -898.406171  0.002651 -5.802925  0.001797
   scf:    8     -898.336857     -898.336856     -898.406171  0.000389 -5.802091  0.002429
   scf:    9     -898.336856     -898.336856     -898.406171  0.000481 -5.803550  0.001558
   scf:   10     -898.336856     -898.336856     -898.406171  0.000060 -5.803645  0.001361
   scf:   11     -898.336857     -898.336857     -898.406171  0.000388 -5.804092  0.000433
   scf:   12     -898.336857     -898.336857     -898.406171  0.000007 -5.804103  0.000394

SCF Convergence by DM+H criterion
max |DM_out - DM_in|         :     0.0000070659
max |H_out - H_in|      (eV) :     0.0003940874
SCF cycle converged after 12 iterations

Using DM_out to compute the final energy and forces
No. of atoms with KB's overlaping orbs in proc 0. Max # of overlaps:       4      22

siesta: E_KS(eV) =             -898.3369

siesta: Atomic forces (eV/Ang):
----------------------------------------
   Tot   -0.000883    0.000277    0.000309
----------------------------------------
   Max    1.809320
   Res    0.963028    sqrt( Sum f_i^2 / 3N )
----------------------------------------
   Max    1.809320    constrained

Stress tensor Voigt[x,y,z,yz,xz,xy] (kbar):      -16.95       -0.40       -0.20       -0.06        0.08        0.13
(Free)E + p*V (eV/cell)     -894.7558
Target enthalpy (eV/cell)     -898.4062

siesta: Stress tensor (static) (eV/Ang**3):
        -0.000086    0.000132    0.000320
         0.000132    0.000026    0.000037
         0.000320    0.000037    0.000062

siesta: Pressure (static):         -0.00137667  kBar

siesta: Stress tensor (total) (eV/Ang**3):
        -0.010578    0.000081    0.000050
         0.000081   -0.000251   -0.000039
         0.000050   -0.000039   -0.000123

siesta: Pressure (total):          5.84850913  kBar

siesta: Temp_ion =   13921.659 K

                     ====================================
                        Begin MD step =      5
                     ====================================

outcell: Unit cell vectors (Ang):
       10.000004    0.000000    0.000000
        0.000000   10.000004    0.000000
        0.000000    0.000000   10.000004

outcell: Cell vector modules (Ang)   :   10.000004   10.000004   10.000004
outcell: Cell angles (23,13,12) (deg):     90.0000     90.0000     90.0000
outcell: Cell volume (Ang**3)        :   1000.0012
<dSpData1D:S at geom step 5
  <sparsity:sparsity for geom step 5
    nrows_g=26 nrows=26 sparsity=1.0000 nnzs=676, refcount: 7>
  <dData1D:(new from dSpData1D) n=676, refcount: 1>
refcount: 1>
new_DM -- step:     5
Re-using DM from previous geometries...
Number of DMs in history: 1
 DM extrapolation coefficients: 
1   1.00000
New DM after history re-use:
<dSpData2D:SpM extrapolated using coords
  <sparsity:sparsity for geom step 5
    nrows_g=26 nrows=26 sparsity=1.0000 nnzs=676, refcount: 9>
  <dData2D:(temp array for extrapolation) n=676 m=1, refcount: 1>
refcount: 1>
Note: For starting DM, Qtot, Tr[D*S] =         14.00000000         13.96490088
No. of atoms with KB's overlaping orbs in proc 0. Max # of overlaps:       4      22

InitMesh: MESH = 90 x 90 x 90 = 729000
InitMesh: Mesh cutoff (required, used) =   200.000   223.865 Ry
New grid distribution [1]: sub = 2

        iscf     Eharris(eV)        E_KS(eV)     FreeEng(eV)     dDmax    Ef(eV) dHmax(eV)
   scf:    1     -897.940754     -898.195625     -898.264939  0.014054 -5.436816  0.461741
   scf:    2     -898.183970     -898.192809     -898.262085  0.022655 -5.832032  0.277485
   scf:    3     -898.197929     -898.195654     -898.264957  0.008382 -5.736934  0.190035
   scf:    4     -898.196089     -898.196842     -898.266129  0.021672 -5.779418  0.032760
   scf:    5     -898.197029     -898.197166     -898.266479  0.012889 -5.782544  0.027140
   scf:    6     -898.197192     -898.197181     -898.266494  0.000775 -5.791718  0.021890
   scf:    7     -898.197263     -898.197240     -898.266555  0.003018 -5.797931  0.001586
   scf:    8     -898.197240     -898.197240     -898.266555  0.000306 -5.798246  0.000757
   scf:    9     -898.197240     -898.197240     -898.266555  0.000029 -5.798405  0.000557

SCF Convergence by DM+H criterion
max |DM_out - DM_in|         :     0.0000293712
max |H_out - H_in|      (eV) :     0.0005574038
SCF cycle converged after 9 iterations

Using DM_out to compute the final energy and forces
No. of atoms with KB's overlaping orbs in proc 0. Max # of overlaps:       4      22

siesta: E_KS(eV) =             -898.1972

siesta: Atomic forces (eV/Ang):
----------------------------------------
   Tot   -0.001969    0.000137    0.000060
----------------------------------------
   Max    2.587023
   Res    1.312191    sqrt( Sum f_i^2 / 3N )
----------------------------------------
   Max    2.587023    constrained

Stress tensor Voigt[x,y,z,yz,xz,xy] (kbar):      -15.92       -0.35       -0.05        0.04        0.62        0.37
(Free)E + p*V (eV/cell)     -894.8731
Target enthalpy (eV/cell)     -898.2666

siesta: Stress tensor (static) (eV/Ang**3):
         0.000426    0.000261    0.000592
         0.000261    0.000053    0.000087
         0.000592    0.000087    0.000137

siesta: Pressure (static):         -0.32932950  kBar

siesta: Stress tensor (total) (eV/Ang**3):
        -0.009934    0.000230    0.000385
         0.000230   -0.000216    0.000022
         0.000385    0.000022   -0.000030

siesta: Pressure (total):          5.43694118  kBar

siesta: Temp_ion =   13588.428 K

                     ====================================
                        Begin MD step =      6
                     ====================================

outcell: Unit cell vectors (Ang):
       10.000004    0.000000    0.000000
        0.000000   10.000004    0.000000
        0.000000    0.000000   10.000004

outcell: Cell vector modules (Ang)   :   10.000004   10.000004   10.000004
outcell: Cell angles (23,13,12) (deg):     90.0000     90.0000     90.0000
outcell: Cell volume (Ang**3)        :   1000.0012
<dSpData1D:S at geom step 6
  <sparsity:sparsity for geom step 6
    nrows_g=26 nrows=26 sparsity=.9882 nnzs=668, refcount: 7>
  <dData1D:(new from dSpData1D) n=668, refcount: 1>
refcount: 1>
new_DM -- step:     6
Re-using DM from previous geometries...
Number of DMs in history: 1
 DM extrapolation coefficients: 
1   1.00000
New DM after history re-use:
<dSpData2D:SpM extrapolated using coords
  <sparsity:sparsity for geom step 6
    nrows_g=26 nrows=26 sparsity=.9882 nnzs=668, refcount: 9>
  <dData2D:(temp array for extrapolation) n=668 m=1, refcount: 1>
refcount: 1>
No. of atoms with KB's overlaping orbs in proc 0. Max # of overlaps:       4      22

InitMesh: MESH = 90 x 90 x 90 = 729000
InitMesh: Mesh cutoff (required, used) =   200.000   223.865 Ry
New grid distribution [1]: sub = 2

        iscf     Eharris(eV)        E_KS(eV)     FreeEng(eV)     dDmax    Ef(eV) dHmax(eV)
   scf:    1     -898.088390     -898.169677     -898.238988  0.012607 -5.718804  0.123646
   scf:    2     -898.148499     -898.163092     -898.231856  0.065630 -5.825467  0.130139
   scf:    3     -898.171776     -898.168406     -898.237603  0.032345 -5.788346  0.082052
   scf:    4     -898.169324     -898.169780     -898.239092  0.031305 -5.807854  0.029153
   scf:    5     -898.169740     -898.169824     -898.239137  0.008019 -5.808256  0.010286
   scf:    6     -898.169850     -898.169842     -898.239157  0.002359 -5.811236  0.006246
   scf:    7     -898.169850     -898.169848     -898.239163  0.001055 -5.815788  0.000385
   scf:    8     -898.169848     -898.169848     -898.239163  0.000127 -5.815973  0.000483

SCF Convergence by DM+H criterion
max |DM_out - DM_in|         :     0.0001267205
max |H_out - H_in|      (eV) :     0.0004833961
SCF cycle converged after 8 iterations

Using DM_out to compute the final energy and forces
No. of atoms with KB's overlaping orbs in proc 0. Max # of overlaps:       4      22

siesta: E_KS(eV) =             -898.1698

siesta: Atomic forces (eV/Ang):
----------------------------------------
   Tot   -0.002722   -0.000076   -0.000088
----------------------------------------
   Max    2.687959
   Res    1.398527    sqrt( Sum f_i^2 / 3N )
----------------------------------------
   Max    2.687959    constrained

Stress tensor Voigt[x,y,z,yz,xz,xy] (kbar):      -15.68       -0.29        0.12        0.15        1.05        0.53
(Free)E + p*V (eV/cell)     -894.9421
Target enthalpy (eV/cell)     -898.2392

siesta: Stress tensor (static) (eV/Ang**3):
         0.000377    0.000303    0.000728
         0.000303    0.000074    0.000127
         0.000728    0.000127    0.000197

siesta: Pressure (static):         -0.34572927  kBar

siesta: Stress tensor (total) (eV/Ang**3):
        -0.009789    0.000333    0.000658
         0.000333   -0.000178    0.000093
         0.000658    0.000093    0.000076

siesta: Pressure (total):          5.28251882  kBar

siesta: Temp_ion =   13523.335 K

                     ====================================
                        Begin MD step =      7
                     ====================================

outcell: Unit cell vectors (Ang):
       10.000004    0.000000    0.000000
        0.000000   10.000004    0.000000
        0.000000    0.000000   10.000004

outcell: Cell vector modules (Ang)   :   10.000004   10.000004   10.000004
outcell: Cell angles (23,13,12) (deg):     90.0000     90.0000     90.0000
outcell: Cell volume (Ang**3)        :   1000.0012
Gamma-point calculation with multiply-connected orbital pairs
Gamma-point calculation with multiply-connected orbital pairs
Folding of H and S implicitly performed
Folding of H and S implicitly performed
<dSpData1D:S at geom step 7
  <sparsity:sparsity for geom step 7
    nrows_g=26 nrows=26 sparsity=1.0000 nnzs=676, refcount: 7>
  <dData1D:(new from dSpData1D) n=676, refcount: 1>
refcount: 1>
new_DM -- step:     7
Re-using DM from previous geometries...
Number of DMs in history: 1
 DM extrapolation coefficients: 
1   1.00000
New DM after history re-use:
<dSpData2D:SpM extrapolated using coords
  <sparsity:sparsity for geom step 7
    nrows_g=26 nrows=26 sparsity=1.0000 nnzs=676, refcount: 9>
  <dData2D:(temp array for extrapolation) n=676 m=1, refcount: 1>
refcount: 1>
Note: For starting DM, Qtot, Tr[D*S] =         14.00000000         14.02673379
No. of atoms with KB's overlaping orbs in proc 0. Max # of overlaps:       4      26

InitMesh: MESH = 90 x 90 x 90 = 729000
InitMesh: Mesh cutoff (required, used) =   200.000   223.865 Ry
New grid distribution [1]: sub = 2

        iscf     Eharris(eV)        E_KS(eV)     FreeEng(eV)     dDmax    Ef(eV) dHmax(eV)
   scf:    1     -898.387999     -898.283188     -898.352501  0.012978 -6.046877  0.341508
   scf:    2     -898.208611     -898.260754     -898.329837  0.066109 -5.832215  0.587109
   scf:    3     -898.293687     -898.283903     -898.353207  0.046584 -5.969094  0.226285
   scf:    4     -898.279719     -898.283356     -898.352540  0.042616 -5.876166  0.056956
   scf:    5     -898.285133     -898.284840     -898.354153  0.027305 -5.862926  0.019774
   scf:    6     -898.284873     -898.284869     -898.354184  0.003811 -5.866387  0.015007
   scf:    7     -898.284899     -898.284887     -898.354202  0.000449 -5.856948  0.000824
   scf:    8     -898.284887     -898.284887     -898.354202  0.000140 -5.857356  0.000826

SCF Convergence by DM+H criterion
max |DM_out - DM_in|         :     0.0001404280
max |H_out - H_in|      (eV) :     0.0008258683
SCF cycle converged after 8 iterations

Using DM_out to compute the final energy and forces
No. of atoms with KB's overlaping orbs in proc 0. Max # of overlaps:       4      26

siesta: E_KS(eV) =             -898.2849

siesta: Atomic forces (eV/Ang):
----------------------------------------
   Tot    0.004873    0.000031   -0.000519
----------------------------------------
   Max    2.240086
   Res    1.258753    sqrt( Sum f_i^2 / 3N )
----------------------------------------
   Max    2.240086    constrained

Stress tensor Voigt[x,y,z,yz,xz,xy] (kbar):      -16.57       -0.25        0.23        0.22        1.15        0.48
(Free)E + p*V (eV/cell)     -894.9005
Target enthalpy (eV/cell)     -898.3542

siesta: Stress tensor (static) (eV/Ang**3):
        -0.000158    0.000233    0.000674
         0.000233    0.000074    0.000137
         0.000674    0.000137    0.000210

siesta: Pressure (static):         -0.06787219  kBar

siesta: Stress tensor (total) (eV/Ang**3):
        -0.010345    0.000301    0.000715
         0.000302   -0.000158    0.000139
         0.000715    0.000139    0.000142

siesta: Pressure (total):          5.53341464  kBar

siesta: Temp_ion =   13804.729 K

                     ====================================
                        Begin MD step =      8
                     ====================================

outcell: Unit cell vectors (Ang):
       10.000004    0.000000    0.000000
        0.000000   10.000004    0.000000
        0.000000    0.000000   10.000004

outcell: Cell vector modules (Ang)   :   10.000004   10.000004   10.000004
outcell: Cell angles (23,13,12) (deg):     90.0000     90.0000     90.0000
outcell: Cell volume (Ang**3)        :   1000.0012
<dSpData1D:S at geom step 8
  <sparsity:sparsity for geom step 8
    nrows_g=26 nrows=26 sparsity=1.0000 nnzs=676, refcount: 7>
  <dData1D:(new from dSpData1D) n=676, refcount: 1>
refcount: 1>
new_DM -- step:     8
Re-using DM from previous geometries...
Number of DMs in history: 1
 DM extrapolation coefficients: 
1   1.00000
New DM after history re-use:
<dSpData2D:SpM extrapolated using coords
  <sparsity:sparsity for geom step 8
    nrows_g=26 nrows=26 sparsity=1.0000 nnzs=676, refcount: 9>
  <dData2D:(temp array for extrapolation) n=676 m=1, refcount: 1>
refcount: 1>
Note: For starting DM, Qtot, Tr[D*S] =         14.00000000         14.05316081
No. of atoms with KB's overlaping orbs in proc 0. Max # of overlaps:       4      26

InitMesh: MESH = 90 x 90 x 90 = 729000
InitMesh: Mesh cutoff (required, used) =   200.000   223.865 Ry
New grid distribution [1]: sub = 2

        iscf     Eharris(eV)        E_KS(eV)     FreeEng(eV)     dDmax    Ef(eV) dHmax(eV)
   scf:    1     -898.672592     -898.441457     -898.510769  0.018131 -6.326537  0.734631
   scf:    2     -898.140061     -898.351251     -898.420389  0.073099 -5.855162  1.183986
   scf:    3     -898.485887     -898.444868     -898.514175  0.050048 -6.153653  0.481565
   scf:    4     -898.444371     -898.447560     -898.516740  0.035382 -5.944660  0.049737
   scf:    5     -898.449308     -898.448635     -898.517913  0.011588 -5.935379  0.041754
   scf:    6     -898.448913     -898.449036     -898.518350  0.013181 -5.938433  0.031419
   scf:    7     -898.449188     -898.449134     -898.518448  0.002209 -5.917186  0.004347
   scf:    8     -898.449136     -898.449136     -898.518450  0.000695 -5.918052  0.001623
   scf:    9     -898.449135     -898.449136     -898.518450  0.000430 -5.917334  0.001008
   scf:   10     -898.449136     -898.449136     -898.518450  0.000031 -5.917311  0.000766

SCF Convergence by DM+H criterion
max |DM_out - DM_in|         :     0.0000305283
max |H_out - H_in|      (eV) :     0.0007660362
SCF cycle converged after 10 iterations

Using DM_out to compute the final energy and forces
No. of atoms with KB's overlaping orbs in proc 0. Max # of overlaps:       4      26

siesta: E_KS(eV) =             -898.4491

siesta: Atomic forces (eV/Ang):
----------------------------------------
   Tot    0.001341    0.000227   -0.000716
----------------------------------------
   Max    1.837850
   Res    0.854996    sqrt( Sum f_i^2 / 3N )
----------------------------------------
   Max    1.837850    constrained

Stress tensor Voigt[x,y,z,yz,xz,xy] (kbar):      -18.65       -0.30        0.14        0.17        0.66        0.09
(Free)E + p*V (eV/cell)     -894.6060
Target enthalpy (eV/cell)     -898.5185

siesta: Stress tensor (static) (eV/Ang**3):
        -0.001181   -0.000004    0.000332
        -0.000004    0.000031    0.000078
         0.000332    0.000078    0.000119

siesta: Pressure (static):          0.55062681  kBar

siesta: Stress tensor (total) (eV/Ang**3):
        -0.011638    0.000053    0.000410
         0.000053   -0.000189    0.000106
         0.000410    0.000106    0.000090

siesta: Pressure (total):          6.26846568  kBar

siesta: Temp_ion =   14190.517 K

                     ====================================
                        Begin MD step =      9
                     ====================================

outcell: Unit cell vectors (Ang):
       10.000004    0.000000    0.000000
        0.000000   10.000004    0.000000
        0.000000    0.000000   10.000004

outcell: Cell vector modules (Ang)   :   10.000004   10.000004   10.000004
outcell: Cell angles (23,13,12) (deg):     90.0000     90.0000     90.0000
outcell: Cell volume (Ang**3)        :   1000.0012
<dSpData1D:S at geom step 9
  <sparsity:sparsity for geom step 9
    nrows_g=26 nrows=26 sparsity=1.0000 nnzs=676, refcount: 7>
  <dData1D:(new from dSpData1D) n=676, refcount: 1>
refcount: 1>
new_DM -- step:     9
Re-using DM from previous geometries...
Number of DMs in history: 1
 DM extrapolation coefficients: 
1   1.00000
New DM after history re-use:
<dSpData2D:SpM extrapolated using coords
  <sparsity:sparsity for geom step 9
    nrows_g=26 nrows=26 sparsity=1.0000 nnzs=676, refcount: 9>
  <dData2D:(temp array for extrapolation) n=676 m=1, refcount: 1>
refcount: 1>
Note: For starting DM, Qtot, Tr[D*S] =         14.00000000         14.06072493
No. of atoms with KB's overlaping orbs in proc 0. Max # of overlaps:       4      26

InitMesh: MESH = 90 x 90 x 90 = 729000
InitMesh: Mesh cutoff (required, used) =   200.000   223.865 Ry
New grid distribution [1]: sub = 2

        iscf     Eharris(eV)        E_KS(eV)     FreeEng(eV)     dDmax    Ef(eV) dHmax(eV)
   scf:    1     -898.693164     -898.446912     -898.516223  0.021438 -6.443788  0.903257
   scf:    2     -897.799970     -898.252051     -898.320978  0.124319 -5.909153  1.729111
   scf:    3     -898.530837     -898.456192     -898.525495  0.091727 -6.278973  0.550421
   scf:    4     -898.451302     -898.458177     -898.527235  0.060372 -6.032004  0.103848
   scf:    5     -898.461048     -898.459858     -898.529061  0.016165 -6.018640  0.056644
   scf:    6     -898.460859     -898.461087     -898.530401  0.030386 -6.019547  0.041193
   scf:    7     -898.461278     -898.461214     -898.530527  0.004253 -5.993881  0.014128
   scf:    8     -898.461234     -898.461232     -898.530546  0.002672 -5.994965  0.001748
   scf:    9     -898.461232     -898.461232     -898.530546  0.000448 -5.993564  0.001010
   scf:   10     -898.461232     -898.461232     -898.530547  0.000329 -5.994100  0.000461
   scf:   11     -898.461232     -898.461232     -898.530547  0.000034 -5.994101  0.000442

SCF Convergence by DM+H criterion
max |DM_out - DM_in|         :     0.0000338353
max |H_out - H_in|      (eV) :     0.0004421307
SCF cycle converged after 11 iterations

Using DM_out to compute the final energy and forces
No. of atoms with KB's overlaping orbs in proc 0. Max # of overlaps:       4      26

siesta: E_KS(eV) =             -898.4612

siesta: Atomic forces (eV/Ang):
----------------------------------------
   Tot   -0.001987   -0.000502   -0.000415
----------------------------------------
   Max    1.469336
   Res    0.848059    sqrt( Sum f_i^2 / 3N )
----------------------------------------
   Max    1.469336    constrained

Stress tensor Voigt[x,y,z,yz,xz,xy] (kbar):      -21.51       -0.50       -0.28       -0.11       -0.50       -0.71
(Free)E + p*V (eV/cell)     -893.8936
Target enthalpy (eV/cell)     -898.5305

siesta: Stress tensor (static) (eV/Ang**3):
        -0.002650   -0.000453   -0.000376
        -0.000453   -0.000093   -0.000108
        -0.000376   -0.000108   -0.000163

siesta: Pressure (static):          1.55150358  kBar

siesta: Stress tensor (total) (eV/Ang**3):
        -0.013424   -0.000441   -0.000315
        -0.000441   -0.000311   -0.000068
        -0.000315   -0.000068   -0.000176

siesta: Pressure (total):          7.42913351  kBar

siesta: Temp_ion =   14204.287 K

                     ====================================
                        Begin MD step =     10
                     ====================================

outcell: Unit cell vectors (Ang):
       10.000004    0.000000    0.000000
        0.000000   10.000004    0.000000
        0.000000    0.000000   10.000004

outcell: Cell vector modules (Ang)   :   10.000004   10.000004   10.000004
outcell: Cell angles (23,13,12) (deg):     90.0000     90.0000     90.0000
outcell: Cell volume (Ang**3)        :   1000.0012
<dSpData1D:S at geom step 10
  <sparsity:sparsity for geom step 10
    nrows_g=26 nrows=26 sparsity=1.0000 nnzs=676, refcount: 7>
  <dData1D:(new from dSpData1D) n=676, refcount: 1>
refcount: 1>
new_DM -- step:    10
Re-using DM from previous geometries...
Number of DMs in history: 1
 DM extrapolation coefficients: 
1   1.00000
New DM after history re-use:
<dSpData2D:SpM extrapolated using coords
  <sparsity:sparsity for geom step 10
    nrows_g=26 nrows=26 sparsity=1.0000 nnzs=676, refcount: 9>
  <dData2D:(temp array for extrapolation) n=676 m=1, refcount: 1>
refcount: 1>
Note: For starting DM, Qtot, Tr[D*S] =         14.00000000         14.04045075
No. of atoms with KB's overlaping orbs in proc 0. Max # of overlaps:       4      26

InitMesh: MESH = 90 x 90 x 90 = 729000
InitMesh: Mesh cutoff (required, used) =   200.000   223.865 Ry
New grid distribution [1]: sub = 2

        iscf     Eharris(eV)        E_KS(eV)     FreeEng(eV)     dDmax    Ef(eV) dHmax(eV)
   scf:    1     -898.422814     -898.279534     -898.348833  0.023635 -6.326264  0.692203
   scf:    2     -897.446192     -898.026131     -898.094380  0.103000 -6.022872  1.840518
   scf:    3     -898.357844     -898.292221     -898.361528  0.085192 -6.258881  0.299253
   scf:    4     -898.278255     -898.289206     -898.358069  0.063294 -6.134163  0.080466
   scf:    5     -898.293035     -898.291334     -898.360392  0.013554 -6.115276  0.047852
   scf:    6     -898.293939     -898.293936     -898.363249  0.038728 -6.108245  0.022643
   scf:    7     -898.293824     -898.293913     -898.363215  0.005684 -6.090051  0.010174
   scf:    8     -898.293973     -898.293978     -898.363292  0.006288 -6.090982  0.001194
   scf:    9     -898.293978     -898.293978     -898.363292  0.000346 -6.090261  0.001256
   scf:   10     -898.293978     -898.293978     -898.363292  0.000231 -6.090462  0.000532

SCF Convergence by DM+H criterion
max |DM_out - DM_in|         :     0.0002313796
max |H_out - H_in|      (eV) :     0.0005323228
SCF cycle converged after 10 iterations

Using DM_out to compute the final energy and forces
No. of atoms with KB's overlaping orbs in proc 0. Max # of overlaps:       4      26

siesta: E_KS(eV) =             -898.2940

siesta: Atomic forces (eV/Ang):
----------------------------------------
   Tot    0.000677   -0.000127   -0.001344
----------------------------------------
   Max    3.501512
   Res    1.709785    sqrt( Sum f_i^2 / 3N )
----------------------------------------
   Max    3.501512    constrained

Stress tensor Voigt[x,y,z,yz,xz,xy] (kbar):      -23.01       -0.79       -0.94       -0.54       -1.66       -1.43
(Free)E + p*V (eV/cell)     -893.2165
Target enthalpy (eV/cell)     -898.3633

siesta: Stress tensor (static) (eV/Ang**3):
        -0.003586   -0.000885   -0.001109
        -0.000885   -0.000268   -0.000376
        -0.001109   -0.000376   -0.000570

siesta: Pressure (static):          2.36273357  kBar

siesta: Stress tensor (total) (eV/Ang**3):
        -0.014363   -0.000895   -0.001035
        -0.000895   -0.000492   -0.000337
        -0.001035   -0.000337   -0.000586

siesta: Pressure (total):          8.24606708  kBar

siesta: Temp_ion =   13854.670 K

                     ====================================
                        Begin MD step =     11
                     ====================================

outcell: Unit cell vectors (Ang):
       10.000004    0.000000    0.000000
        0.000000   10.000004    0.000000
        0.000000    0.000000   10.000004

outcell: Cell vector modules (Ang)   :   10.000004   10.000004   10.000004
outcell: Cell angles (23,13,12) (deg):     90.0000     90.0000     90.0000
outcell: Cell volume (Ang**3)        :   1000.0012
<dSpData1D:S at geom step 11
  <sparsity:sparsity for geom step 11
    nrows_g=26 nrows=26 sparsity=1.0000 nnzs=676, refcount: 7>
  <dData1D:(new from dSpData1D) n=676, refcount: 1>
refcount: 1>
new_DM -- step:    11
Re-using DM from previous geometries...
Number of DMs in history: 1
 DM extrapolation coefficients: 
1   1.00000
New DM after history re-use:
<dSpData2D:SpM extrapolated using coords
  <sparsity:sparsity for geom step 11
    nrows_g=26 nrows=26 sparsity=1.0000 nnzs=676, refcount: 9>
  <dData2D:(temp array for extrapolation) n=676 m=1, refcount: 1>
refcount: 1>
No. of atoms with KB's overlaping orbs in proc 0. Max # of overlaps:       4      26

InitMesh: MESH = 90 x 90 x 90 = 729000
InitMesh: Mesh cutoff (required, used) =   200.000   223.865 Ry
New grid distribution [1]: sub = 2

        iscf     Eharris(eV)        E_KS(eV)     FreeEng(eV)     dDmax    Ef(eV) dHmax(eV)
   scf:    1     -898.270210     -898.323135     -898.392289  0.050976 -6.102095  0.456260
   scf:    2     -897.240874     -897.988536     -898.044918  0.343368 -6.222252  1.658274
   scf:    3     -898.391328     -898.332090     -898.401337  0.289561 -6.127889  0.110513
   scf:    4     -898.322487     -898.331039     -898.400060  0.065889 -6.148515  0.090371
   scf:    5     -898.334351     -898.333345     -898.402615  0.027238 -6.146634  0.099978
   scf:    6     -898.333128     -898.333673     -898.402986  0.020450 -6.217688  0.016903
   scf:    7     -898.333210     -898.333712     -898.402996  0.017581 -6.212363  0.017688
   scf:    8     -898.333830     -898.333845     -898.403156  0.009304 -6.222266  0.000777
   scf:    9     -898.333847     -898.333847     -898.403156  0.000520 -6.222065  0.000550
   scf:   10     -898.333846     -898.333846     -898.403157  0.000190 -6.222235  0.000518

SCF Convergence by DM+H criterion
max |DM_out - DM_in|         :     0.0001903082
max |H_out - H_in|      (eV) :     0.0005184851
SCF cycle converged after 10 iterations

Using DM_out to compute the final energy and forces
No. of atoms with KB's overlaping orbs in proc 0. Max # of overlaps:       4      26

siesta: E_KS(eV) =             -898.3338

siesta: Atomic forces (eV/Ang):
----------------------------------------
   Tot    0.001045   -0.000381    0.000221
----------------------------------------
   Max    2.726610
   Res    1.327951    sqrt( Sum f_i^2 / 3N )
----------------------------------------
   Max    2.726610    constrained

Stress tensor Voigt[x,y,z,yz,xz,xy] (kbar):      -21.36       -0.85       -1.06       -0.62       -1.37       -1.15
(Free)E + p*V (eV/cell)     -893.5634
Target enthalpy (eV/cell)     -898.4032

siesta: Stress tensor (static) (eV/Ang**3):
        -0.002904   -0.000710   -0.000967
        -0.000709   -0.000277   -0.000395
        -0.000967   -0.000395   -0.000593

siesta: Pressure (static):          2.01564290  kBar

siesta: Stress tensor (total) (eV/Ang**3):
        -0.013330   -0.000720   -0.000855
        -0.000720   -0.000529   -0.000389
        -0.000855   -0.000389   -0.000660

siesta: Pressure (total):          7.75416685  kBar

siesta: Temp_ion =   13906.921 K

                     ====================================
                        Begin MD step =     12
                     ====================================

outcell: Unit cell vectors (Ang):
       10.000004    0.000000    0.000000
        0.000000   10.000004    0.000000
        0.000000    0.000000   10.000004

outcell: Cell vector modules (Ang)   :   10.000004   10.000004   10.000004
outcell: Cell angles (23,13,12) (deg):     90.0000     90.0000     90.0000
outcell: Cell volume (Ang**3)        :   1000.0012
<dSpData1D:S at geom step 12
  <sparsity:sparsity for geom step 12
    nrows_g=26 nrows=26 sparsity=1.0000 nnzs=676, refcount: 7>
  <dData1D:(new from dSpData1D) n=676, refcount: 1>
refcount: 1>
new_DM -- step:    12
Re-using DM from previous geometries...
Number of DMs in history: 1
 DM extrapolation coefficients: 
1   1.00000
New DM after history re-use:
<dSpData2D:SpM extrapolated using coords
  <sparsity:sparsity for geom step 12
    nrows_g=26 nrows=26 sparsity=1.0000 nnzs=676, refcount: 9>
  <dData2D:(temp array for extrapolation) n=676 m=1, refcount: 1>
refcount: 1>
Note: For starting DM, Qtot, Tr[D*S] =         14.00000000         13.97305351
No. of atoms with KB's overlaping orbs in proc 0. Max # of overlaps:       4      26

InitMesh: MESH = 90 x 90 x 90 = 729000
InitMesh: Mesh cutoff (required, used) =   200.000   223.865 Ry
New grid distribution [1]: sub = 2

        iscf     Eharris(eV)        E_KS(eV)     FreeEng(eV)     dDmax    Ef(eV) dHmax(eV)
   scf:    1     -897.988863     -898.346766     -898.414764  0.090098 -5.994538  0.752382
   scf:    2     -896.440087     -897.771422     -897.787746  0.675975 -6.536873  1.256160
   scf:    3     -898.562256     -898.287313     -898.350777  0.374678 -6.176326  0.460107
   scf:    4     -898.185323     -898.239172     -898.298583  0.060364 -6.182716  0.489998
   scf:    5     -897.037994     -898.050920     -898.087255  0.724050 -6.439592  0.548282
   scf:    6     -898.220411     -898.139209     -898.185479  0.067751 -6.392776  0.461406
   scf:    7     -897.732336     -898.259329     -898.320055  0.635917 -6.401705  0.310798
   scf:    8     -898.323855     -898.293175     -898.356802  0.044636 -6.403244  0.256639
   scf:    9     -898.329249     -898.311892     -898.377078  0.029226 -6.404824  0.221297
   scf:   10     -898.375792     -898.366460     -898.435773  0.167837 -6.407430  0.019767
   scf:   11     -898.366190     -898.366835     -898.436084  0.025174 -6.407915  0.010671
   scf:   12     -898.363652     -898.366044     -898.435345  0.031624 -6.409613  0.027413
   scf:   13     -898.367136     -898.366692     -898.436006  0.011221 -6.409968  0.013911
   scf:   14     -898.366905     -898.366932     -898.436218  0.012813 -6.412962  0.004691
   scf:   15     -898.366939     -898.366937     -898.436227  0.001143 -6.414289  0.002206
   scf:   16     -898.366936     -898.366937     -898.436228  0.000529 -6.414181  0.002002
   scf:   17     -898.366937     -898.366937     -898.436228  0.000090 -6.414541  0.001962
   scf:   18     -898.366936     -898.366936     -898.436228  0.000118 -6.415148  0.001429
   scf:   19     -898.366937     -898.366936     -898.436229  0.000167 -6.415186  0.001209
   scf:   20     -898.366938     -898.366937     -898.436229  0.000442 -6.415032  0.000616
   scf:   21     -898.366937     -898.366937     -898.436229  0.000197 -6.415254  0.000550

SCF Convergence by DM+H criterion
max |DM_out - DM_in|         :     0.0001968859
max |H_out - H_in|      (eV) :     0.0005499687
SCF cycle converged after 21 iterations

Using DM_out to compute the final energy and forces
No. of atoms with KB's overlaping orbs in proc 0. Max # of overlaps:       4      26

siesta: E_KS(eV) =             -898.3669

siesta: Atomic forces (eV/Ang):
----------------------------------------
   Tot    0.000199   -0.001914   -0.000872
----------------------------------------
   Max    0.625528
   Res    0.273488    sqrt( Sum f_i^2 / 3N )
----------------------------------------
   Max    0.625528    constrained

Stress tensor Voigt[x,y,z,yz,xz,xy] (kbar):      -19.51       -0.62       -0.49       -0.26       -0.12       -0.18
(Free)E + p*V (eV/cell)     -894.1459
Target enthalpy (eV/cell)     -898.4362

siesta: Stress tensor (static) (eV/Ang**3):
        -0.001954   -0.000011   -0.000079
        -0.000011   -0.000060   -0.000059
        -0.000079   -0.000059   -0.000071

siesta: Pressure (static):          1.11368617  kBar

siesta: Stress tensor (total) (eV/Ang**3):
        -0.012177   -0.000111   -0.000076
        -0.000111   -0.000389   -0.000163
        -0.000076   -0.000163   -0.000304

siesta: Pressure (total):          6.87385217  kBar

siesta: Temp_ion =   13928.596 K

                     ====================================
                        Begin MD step =     13
                     ====================================

outcell: Unit cell vectors (Ang):
       10.000004    0.000000    0.000000
        0.000000   10.000004    0.000000
        0.000000    0.000000   10.000004

outcell: Cell vector modules (Ang)   :   10.000004   10.000004   10.000004
outcell: Cell angles (23,13,12) (deg):     90.0000     90.0000     90.0000
outcell: Cell volume (Ang**3)        :   1000.0012
<dSpData1D:S at geom step 13
  <sparsity:sparsity for geom step 13
    nrows_g=26 nrows=26 sparsity=1.0000 nnzs=676, refcount: 7>
  <dData1D:(new from dSpData1D) n=676, refcount: 1>
refcount: 1>
new_DM -- step:    13
Re-using DM from previous geometries...
Number of DMs in history: 1
 DM extrapolation coefficients: 
1   1.00000
New DM after history re-use:
<dSpData2D:SpM extrapolated using coords
  <sparsity:sparsity for geom step 13
    nrows_g=26 nrows=26 sparsity=1.0000 nnzs=676, refcount: 9>
  <dData2D:(temp array for extrapolation) n=676 m=1, refcount: 1>
refcount: 1>
Note: For starting DM, Qtot, Tr[D*S] =         14.00000000         13.95742726
No. of atoms with KB's overlaping orbs in proc 0. Max # of overlaps:       4      26

InitMesh: MESH = 90 x 90 x 90 = 729000
InitMesh: Mesh cutoff (required, used) =   200.000   223.865 Ry
New grid distribution [1]: sub = 2

        iscf     Eharris(eV)        E_KS(eV)     FreeEng(eV)     dDmax    Ef(eV) dHmax(eV)
   scf:    1     -897.144225     -897.963034     -898.025376  0.206612 -6.133024  0.874331
   scf:    2     -895.734646     -897.388731     -897.389359  0.821293 -6.960304  0.903498
   scf:    3     -897.688671     -897.547094     -897.569721  0.069570 -6.523749  0.697849
   scf:    4     -897.323891     -897.438343     -897.445020  0.057137 -6.639760  0.806746
   scf:    5     -897.649985     -897.546758     -897.569236  0.057603 -6.633626  0.696805
   scf:    6     -897.781847     -897.668436     -897.705226  0.073990 -6.634897  0.594345
   scf:    7     -896.993254     -897.863245     -897.912332  0.823866 -6.647829  0.412140
   scf:    8     -898.087972     -898.037314     -898.105543  0.280118 -6.630055  0.070282
   scf:    9     -897.948388     -898.001396     -898.065488  0.104171 -6.629212  0.196263
   scf:   10     -896.218504     -897.525071     -897.544533  0.733970 -6.654563  0.714127
   scf:   11     -897.964397     -897.762294     -897.808630  0.151415 -6.650485  0.509027
   scf:   12     -897.890075     -898.030541     -898.097873  0.508798 -6.641407  0.108395
   scf:   13     -897.840264     -897.991644     -898.057853  0.266712 -6.647435  0.213098
   scf:   14     -897.995812     -897.993739     -898.060102  0.003719 -6.646121  0.208623
   scf:   15     -898.054961     -898.030501     -898.099353  0.088211 -6.645857  0.102234
   scf:   16     -898.034755     -898.032684     -898.101660  0.008287 -6.647436  0.092380
   scf:   17     -898.043124     -898.038546     -898.107788  0.028455 -6.647704  0.058003
   scf:   18     -898.043114     -898.042618     -898.111807  0.047531 -6.646800  0.007477
   scf:   19     -898.042184     -898.042448     -898.111690  0.007696 -6.644827  0.010043
   scf:   20     -898.042406     -898.042427     -898.111674  0.000633 -6.644171  0.010849
   scf:   21     -898.042707     -898.042637     -898.111826  0.009301 -6.648731  0.005750
   scf:   22     -898.042625     -898.042632     -898.111828  0.001153 -6.648811  0.005642
   scf:   23     -898.042635     -898.042634     -898.111828  0.000275 -6.649246  0.005380
   scf:   24     -898.042634     -898.042634     -898.111828  0.000102 -6.649486  0.005153
   scf:   25     -898.042624     -898.042630     -898.111828  0.000423 -6.651342  0.003002
   scf:   26     -898.042635     -898.042633     -898.111829  0.000538 -6.651695  0.001877
   scf:   27     -898.042631     -898.042632     -898.111829  0.000132 -6.651556  0.001593
   scf:   28     -898.042631     -898.042632     -898.111829  0.000046 -6.651316  0.000994

SCF Convergence by DM+H criterion
max |DM_out - DM_in|         :     0.0000464220
max |H_out - H_in|      (eV) :     0.0009936112
SCF cycle converged after 28 iterations

Using DM_out to compute the final energy and forces
No. of atoms with KB's overlaping orbs in proc 0. Max # of overlaps:       4      26

siesta: E_KS(eV) =             -898.0426

siesta: Atomic forces (eV/Ang):
----------------------------------------
   Tot   -0.001463    0.000158   -0.000485
----------------------------------------
   Max    2.196413
   Res    0.921396    sqrt( Sum f_i^2 / 3N )
----------------------------------------
   Max    2.196413    constrained

Stress tensor Voigt[x,y,z,yz,xz,xy] (kbar):      -19.76       -0.41        0.20        0.17        0.93        0.69
(Free)E + p*V (eV/cell)     -893.9584
Target enthalpy (eV/cell)     -898.1118

siesta: Stress tensor (static) (eV/Ang**3):
        -0.002285    0.000627    0.000700
         0.000627    0.000138    0.000297
         0.000700    0.000297    0.000489

siesta: Pressure (static):          0.88541617  kBar

siesta: Stress tensor (total) (eV/Ang**3):
        -0.012332    0.000433    0.000581
         0.000433   -0.000254    0.000105
         0.000581    0.000105    0.000126

siesta: Pressure (total):          6.65455982  kBar

siesta: Temp_ion =   13116.075 K

                     ====================================
                        Begin MD step =     14
                     ====================================

outcell: Unit cell vectors (Ang):
       10.000004    0.000000    0.000000
        0.000000   10.000004    0.000000
        0.000000    0.000000   10.000004

outcell: Cell vector modules (Ang)   :   10.000004   10.000004   10.000004
outcell: Cell angles (23,13,12) (deg):     90.0000     90.0000     90.0000
outcell: Cell volume (Ang**3)        :   1000.0012
<dSpData1D:S at geom step 14
  <sparsity:sparsity for geom step 14
    nrows_g=26 nrows=26 sparsity=1.0000 nnzs=676, refcount: 7>
  <dData1D:(new from dSpData1D) n=676, refcount: 1>
refcount: 1>
new_DM -- step:    14
Re-using DM from previous geometries...
Number of DMs in history: 1
 DM extrapolation coefficients: 
1   1.00000
New DM after history re-use:
<dSpData2D:SpM extrapolated using coords
  <sparsity:sparsity for geom step 14
    nrows_g=26 nrows=26 sparsity=1.0000 nnzs=676, refcount: 9>
  <dData2D:(temp array for extrapolation) n=676 m=1, refcount: 1>
refcount: 1>
Note: For starting DM, Qtot, Tr[D*S] =         14.00000000         13.95980068
No. of atoms with KB's overlaping orbs in proc 0. Max # of overlaps:       4      26

InitMesh: MESH = 90 x 90 x 90 = 729000
InitMesh: Mesh cutoff (required, used) =   200.000   223.865 Ry
New grid distribution [1]: sub = 2

        iscf     Eharris(eV)        E_KS(eV)     FreeEng(eV)     dDmax    Ef(eV) dHmax(eV)
   scf:    1     -895.979887     -897.282800     -897.328722  0.343579 -6.491582  0.944372
   scf:    2     -894.425432     -896.674113     -896.674133  0.932997 -7.206911  1.732755
   scf:    3     -897.044903     -896.896647     -896.916661  0.082089 -6.748777  0.740738
   scf:    4     -896.821816     -896.859543     -896.874528  0.017754 -6.766450  0.771526
   scf:    5     -896.681813     -896.772273     -896.774244  0.036878 -6.813137  0.887030
   scf:    6     -896.754327     -896.763364     -896.764412  0.003112 -6.812235  0.912940
   scf:    7     -895.157170     -897.047697     -897.050232  1.165867 -6.776410  0.725977
   scf:    8     -897.056405     -897.052067     -897.055494  0.002823 -6.775340  0.711822
   scf:    9     -896.960019     -897.006773     -897.006778  0.011109 -6.728448  0.949229
   scf:   10     -896.986090     -896.996480     -896.996481  0.002656 -6.710611  1.006980
   scf:   11     -897.066468     -897.032072     -897.032558  0.016981 -6.736759  0.786453
   scf:   12     -894.319568     -896.774049     -896.776223  1.172642 -6.811531  0.891722
   scf:   13     -897.437399     -897.142067     -897.187477  0.198404 -6.794260  0.553892
   scf:   14     -897.543086     -897.380784     -897.445122  0.217765 -6.791086  0.286803
   scf:   15     -896.754002     -897.112949     -897.155807  0.236745 -6.794135  0.578080
   scf:   16     -897.080622     -897.096880     -897.138148  0.010993 -6.789265  0.592014
   scf:   17     -896.298241     -897.262247     -897.300498  0.843898 -6.777096  0.443246
   scf:   18     -896.592752     -897.302794     -897.361910  0.683902 -6.786849  0.393591
   scf:   19     -897.488232     -897.469280     -897.537469  0.301396 -6.777284  0.065851
   scf:   20     -897.299722     -897.417398     -897.476432  0.204231 -6.775158  0.219483
   scf:   21     -897.484798     -897.469987     -897.537333  0.152248 -6.780114  0.052294
   scf:   22     -897.466812     -897.470779     -897.539387  0.052674 -6.784516  0.037619
   scf:   23     -897.148572     -897.357375     -897.420960  0.237059 -6.789585  0.315201
   scf:   24     -897.450798     -897.471402     -897.539265  0.286557 -6.788399  0.031141
   scf:   25     -897.472101     -897.471783     -897.539802  0.006347 -6.788328  0.023788
   scf:   26     -897.472312     -897.472102     -897.540329  0.007968 -6.787829  0.017087
   scf:   27     -897.471700     -897.472103     -897.540642  0.015877 -6.786070  0.020136
   scf:   28     -897.472138     -897.472140     -897.540671  0.003778 -6.789930  0.018745
   scf:   29     -897.472083     -897.472113     -897.540670  0.001569 -6.789987  0.016826
   scf:   30     -897.472150     -897.472132     -897.540671  0.000664 -6.790518  0.016509
   scf:   31     -897.472171     -897.472155     -897.540681  0.001175 -6.795309  0.011122
   scf:   32     -897.472158     -897.472157     -897.540683  0.000179 -6.796854  0.008826
   scf:   33     -897.472195     -897.472183     -897.540704  0.002400 -6.801104  0.002309
   scf:   34     -897.472176     -897.472179     -897.540705  0.000228 -6.801130  0.002247
   scf:   35     -897.472154     -897.472167     -897.540706  0.000678 -6.801213  0.001897
   scf:   36     -897.472176     -897.472172     -897.540706  0.000242 -6.801373  0.001471
   scf:   37     -897.472172     -897.472172     -897.540706  0.000021 -6.801415  0.001411
   scf:   38     -897.472164     -897.472168     -897.540706  0.000354 -6.801861  0.000731
   scf:   39     -897.472168     -897.472168     -897.540706  0.000019 -6.801907  0.000694

SCF Convergence by DM+H criterion
max |DM_out - DM_in|         :     0.0000188854
max |H_out - H_in|      (eV) :     0.0006942394
SCF cycle converged after 39 iterations

Using DM_out to compute the final energy and forces
No. of atoms with KB's overlaping orbs in proc 0. Max # of overlaps:       4      26

siesta: E_KS(eV) =             -897.4722

siesta: Atomic forces (eV/Ang):
----------------------------------------
   Tot   -0.001584    0.001364    0.001029
----------------------------------------
   Max    3.186322
   Res    1.365835    sqrt( Sum f_i^2 / 3N )
----------------------------------------
   Max    3.186322    constrained

Stress tensor Voigt[x,y,z,yz,xz,xy] (kbar):      -21.73       -0.46        0.66        0.43        1.49        1.18
(Free)E + p*V (eV/cell)     -893.0620
Target enthalpy (eV/cell)     -897.5407

siesta: Stress tensor (static) (eV/Ang**3):
        -0.004074    0.000923    0.001005
         0.000923    0.000095    0.000427
         0.001005    0.000427    0.000716

siesta: Pressure (static):          1.74299575  kBar

siesta: Stress tensor (total) (eV/Ang**3):
        -0.013561    0.000739    0.000928
         0.000739   -0.000284    0.000269
         0.000928    0.000269    0.000409

siesta: Pressure (total):          7.17559799  kBar

siesta: Temp_ion =   11668.948 K

                     ====================================
                        Begin MD step =     15
                     ====================================

outcell: Unit cell vectors (Ang):
       10.000004    0.000000    0.000000
        0.000000   10.000004    0.000000
        0.000000    0.000000   10.000004

outcell: Cell vector modules (Ang)   :   10.000004   10.000004   10.000004
outcell: Cell angles (23,13,12) (deg):     90.0000     90.0000     90.0000
outcell: Cell volume (Ang**3)        :   1000.0012
<dSpData1D:S at geom step 15
  <sparsity:sparsity for geom step 15
    nrows_g=26 nrows=26 sparsity=1.0000 nnzs=676, refcount: 7>
  <dData1D:(new from dSpData1D) n=676, refcount: 1>
refcount: 1>
new_DM -- step:    15
Re-using DM from previous geometries...
Number of DMs in history: 1
 DM extrapolation coefficients: 
1   1.00000
New DM after history re-use:
<dSpData2D:SpM extrapolated using coords
  <sparsity:sparsity for geom step 15
    nrows_g=26 nrows=26 sparsity=1.0000 nnzs=676, refcount: 9>
  <dData2D:(temp array for extrapolation) n=676 m=1, refcount: 1>
refcount: 1>
Note: For starting DM, Qtot, Tr[D*S] =         14.00000000         13.96991839
No. of atoms with KB's overlaping orbs in proc 0. Max # of overlaps:       4      26

InitMesh: MESH = 90 x 90 x 90 = 729000
InitMesh: Mesh cutoff (required, used) =   200.000   223.865 Ry
New grid distribution [1]: sub = 2

        iscf     Eharris(eV)        E_KS(eV)     FreeEng(eV)     dDmax    Ef(eV) dHmax(eV)
   scf:    1     -894.779373     -896.499056     -896.512691  0.338962 -6.787675  1.666164
   scf:    2     -887.754418     -894.155748     -894.155750  1.071437 -5.827451  7.117341
   scf:    3     -897.584326     -896.432562     -896.492386  0.555162 -6.610614  2.396293
   scf:    4     -896.133263     -896.675675     -896.708915  0.604957 -6.734348  0.621251
   scf:    5     -896.742096     -896.710988     -896.750229  0.038286 -6.723556  0.409344
   scf:    6     -896.098450     -896.645106     -896.710595  0.508566 -6.735337  0.460167
   scf:    7     -896.500915     -896.576867     -896.639846  0.050278 -6.730861  0.604459
   scf:    8     -896.254312     -896.466917     -896.528424  0.201480 -6.652172  1.708122
   scf:    9     -896.737190     -896.805661     -896.867550  0.412398 -6.722086  0.202472
   scf:   10     -896.661229     -896.749900     -896.804555  0.110950 -6.759667  0.944962
   scf:   11     -896.817391     -896.789999     -896.850966  0.070164 -6.755495  0.573500
   scf:   12     -896.766844     -896.803607     -896.869407  0.148320 -6.733026  0.282912
   scf:   13     -896.811323     -896.810636     -896.875368  0.052545 -6.747844  0.031644
   scf:   14     -896.810459     -896.810560     -896.875404  0.002849 -6.746822  0.019379
   scf:   15     -896.811266     -896.811001     -896.875384  0.009620 -6.744738  0.015051
   scf:   16     -896.810649     -896.810843     -896.875449  0.004114 -6.745669  0.007344
   scf:   17     -896.810868     -896.810857     -896.875457  0.000599 -6.747332  0.007478
   scf:   18     -896.810881     -896.810869     -896.875457  0.000337 -6.748303  0.005705
[...]
   scf:   63     -896.416940     -896.416859     -896.466261  0.000731 -5.645054  0.006496
   scf:   64     -896.416924     -896.416892     -896.466262  0.000368 -5.646018  0.004323
   scf:   65     -896.416933     -896.416912     -896.466262  0.000250 -5.646882  0.003552
   scf:   66     -896.416827     -896.416870     -896.466262  0.000522 -5.646465  0.004076
   scf:   67     -896.416961     -896.416916     -896.466263  0.000482 -5.648548  0.003404
   scf:   68     -896.416937     -896.416927     -896.466263  0.000148 -5.648292  0.002496
   scf:   69     -896.417002     -896.416964     -896.466263  0.000352 -5.648061  0.001361
   scf:   70     -896.416967     -896.416966     -896.466263  0.000065 -5.647747  0.000564

SCF Convergence by DM+H criterion
max |DM_out - DM_in|         :     0.0000653928
max |H_out - H_in|      (eV) :     0.0005643871
SCF cycle converged after 70 iterations

Using DM_out to compute the final energy and forces
No. of atoms with KB's overlaping orbs in proc 0. Max # of overlaps:       4      26

siesta: E_KS(eV) =             -896.4170

siesta: Atomic forces (eV/Ang):
----------------------------------------
   Tot    0.001238    0.003746   -0.004419
----------------------------------------
   Max    2.471705
   Res    1.125865    sqrt( Sum f_i^2 / 3N )
----------------------------------------
   Max    2.471705    constrained

Stress tensor Voigt[x,y,z,yz,xz,xy] (kbar):       -6.74       -4.09       -0.24        3.74       -2.05        6.68
(Free)E + p*V (eV/cell)     -894.1625
Target enthalpy (eV/cell)     -896.4663

siesta: Stress tensor (static) (eV/Ang**3):
        -0.000133    0.002462   -0.000030
         0.002462   -0.000571    0.001444
        -0.000030    0.001445    0.000390

siesta: Pressure (static):          0.16769523  kBar

siesta: Stress tensor (total) (eV/Ang**3):
        -0.004208    0.004169   -0.001279
         0.004169   -0.002551    0.002331
        -0.001280    0.002331   -0.000152

siesta: Pressure (total):          3.69105017  kBar

siesta: Temp_ion =    9024.200 K

                     ====================================
                        Begin MD step =     99
                     ====================================

outcell: Unit cell vectors (Ang):
       10.000004    0.000000    0.000000
        0.000000   10.000004    0.000000
        0.000000    0.000000   10.000004

outcell: Cell vector modules (Ang)   :   10.000004   10.000004   10.000004
outcell: Cell angles (23,13,12) (deg):     90.0000     90.0000     90.0000
outcell: Cell volume (Ang**3)        :   1000.0012
<dSpData1D:S at geom step 99
  <sparsity:sparsity for geom step 99
    nrows_g=26 nrows=26 sparsity=1.0000 nnzs=676, refcount: 7>
  <dData1D:(new from dSpData1D) n=676, refcount: 1>
refcount: 1>
new_DM -- step:    99
Re-using DM from previous geometries...
Number of DMs in history: 1
 DM extrapolation coefficients: 
1   1.00000
New DM after history re-use:
<dSpData2D:SpM extrapolated using coords
  <sparsity:sparsity for geom step 99
    nrows_g=26 nrows=26 sparsity=1.0000 nnzs=676, refcount: 9>
  <dData2D:(temp array for extrapolation) n=676 m=1, refcount: 1>
refcount: 1>
No. of atoms with KB's overlaping orbs in proc 0. Max # of overlaps:       4      26

InitMesh: MESH = 90 x 90 x 90 = 729000
InitMesh: Mesh cutoff (required, used) =   200.000   223.865 Ry
New grid distribution [1]: sub = 2

        iscf     Eharris(eV)        E_KS(eV)     FreeEng(eV)     dDmax    Ef(eV) dHmax(eV)
   scf:    1     -897.342435     -896.640867     -896.646877  0.227761 -5.652445  0.586375
   scf:    2     -883.104922     -892.110362     -892.121864  0.688659 -5.766860  8.958304
   scf:    3     -896.672457     -896.648286     -896.654733  0.677968 -5.657846  0.428783
   scf:    4     -896.655198     -896.657891     -896.667163  0.022303 -5.680229  0.229163
   scf:    5     -896.659193     -896.659895     -896.669137  0.017101 -5.681305  0.145473
   scf:    6     -896.662837     -896.662137     -896.672439  0.012001 -5.696355  0.060632
   scf:    7     -896.656334     -896.659860     -896.670448  0.010346 -5.699172  0.220955
   scf:    8     -896.656845     -896.660918     -896.671779  0.021840 -5.691351  0.094888
   scf:    9     -896.660206     -896.661636     -896.672304  0.015328 -5.691739  0.055927
   scf:   10     -896.660897     -896.661685     -896.672495  0.009674 -5.692310  0.037805
   scf:   11     -896.661809     -896.661809     -896.672625  0.003598 -5.693089  0.001927
   scf:   12     -896.661809     -896.661809     -896.672625  0.000057 -5.693088  0.001419
   scf:   13     -896.661809     -896.661809     -896.672625  0.000043 -5.693110  0.001440
   scf:   14     -896.661773     -896.661791     -896.672626  0.000274 -5.693369  0.000550

SCF Convergence by DM+H criterion
max |DM_out - DM_in|         :     0.0002742235
max |H_out - H_in|      (eV) :     0.0005495425
SCF cycle converged after 14 iterations

Using DM_out to compute the final energy and forces
No. of atoms with KB's overlaping orbs in proc 0. Max # of overlaps:       4      26

siesta: E_KS(eV) =             -896.6618

siesta: Atomic forces (eV/Ang):
----------------------------------------
   Tot    0.003365    0.011813    0.002897
----------------------------------------
   Max    1.932227
   Res    1.070462    sqrt( Sum f_i^2 / 3N )
----------------------------------------
   Max    1.932227    constrained

Stress tensor Voigt[x,y,z,yz,xz,xy] (kbar):       -5.36       -2.18        1.50        4.06       -0.79        7.64
(Free)E + p*V (eV/cell)     -895.4157
Target enthalpy (eV/cell)     -896.6726

siesta: Stress tensor (static) (eV/Ang**3):
         0.000872    0.002860    0.000852
         0.002860    0.000826    0.001547
         0.000851    0.001547    0.001529

siesta: Pressure (static):         -1.72403323  kBar

siesta: Stress tensor (total) (eV/Ang**3):
        -0.003348    0.004771   -0.000492
         0.004771   -0.001361    0.002537
        -0.000492    0.002537    0.000938

siesta: Pressure (total):          2.01373819  kBar

siesta: Temp_ion =    9523.464 K

                     ====================================
                        Begin MD step =    100
                     ====================================

outcell: Unit cell vectors (Ang):
       10.000004    0.000000    0.000000
        0.000000   10.000004    0.000000
        0.000000    0.000000   10.000004

outcell: Cell vector modules (Ang)   :   10.000004   10.000004   10.000004
outcell: Cell angles (23,13,12) (deg):     90.0000     90.0000     90.0000
outcell: Cell volume (Ang**3)        :   1000.0012
<dSpData1D:S at geom step 100
  <sparsity:sparsity for geom step 100
    nrows_g=26 nrows=26 sparsity=1.0000 nnzs=676, refcount: 7>
  <dData1D:(new from dSpData1D) n=676, refcount: 1>
refcount: 1>
new_DM -- step:   100
Re-using DM from previous geometries...
Number of DMs in history: 1
 DM extrapolation coefficients: 
1   1.00000
New DM after history re-use:
<dSpData2D:SpM extrapolated using coords
  <sparsity:sparsity for geom step 100
    nrows_g=26 nrows=26 sparsity=1.0000 nnzs=676, refcount: 9>
  <dData2D:(temp array for extrapolation) n=676 m=1, refcount: 1>
refcount: 1>
No. of atoms with KB's overlaping orbs in proc 0. Max # of overlaps:       4      26

InitMesh: MESH = 90 x 90 x 90 = 729000
InitMesh: Mesh cutoff (required, used) =   200.000   223.865 Ry
New grid distribution [1]: sub = 2

        iscf     Eharris(eV)        E_KS(eV)     FreeEng(eV)     dDmax    Ef(eV) dHmax(eV)
   scf:    1     -895.751865     -896.209126     -896.211130  0.250619 -5.700185  2.616909
   scf:    2     -856.978192     -884.884993     -884.884994  1.240465 -3.714896 14.670113
   scf:    3     -894.832835     -890.320210     -890.320981  0.398029 -5.530560  8.250787
   scf:    4     -892.044555     -891.198382     -891.199669  0.065203 -5.564234  7.651579
   scf:    5     -893.202503     -892.226503     -892.228506  0.072933 -5.591265  6.910057
   scf:    6     -894.575013     -896.553277     -896.557392  0.815463 -5.706380  1.639526
   scf:    7     -883.129840     -892.726679     -892.734332  0.776160 -5.673136  6.279004
   scf:    8     -897.836417     -896.560827     -896.577085  0.516643 -5.731381  1.478717
   scf:    9     -895.612418     -896.462104     -896.472148  0.283963 -5.741702  2.126747
   scf:   10     -888.497587     -893.310978     -893.311697  0.434043 -5.777644  7.028660
   scf:   11     -871.896762     -891.209597     -891.213518  1.345133 -5.639854  7.344671
   scf:   12     -898.466406     -895.742434     -895.757113  0.430383 -5.717621  3.116227
   scf:   13     -885.681692     -894.003410     -894.005372  0.848316 -5.799524  6.137731
   scf:   14     -897.388663     -896.000808     -896.009993  0.258353 -5.768907  3.148696
   scf:   15     -893.588917     -894.911195     -894.917127  0.156268 -5.849296  5.021211
   scf:   16     -897.323254     -896.491332     -896.507488  0.286757 -5.882153  2.135078
   scf:   17     -896.484436     -896.488260     -896.503984  0.006116 -5.877469  2.066947
   scf:   18     -894.052870     -896.067120     -896.086508  0.406110 -5.806215  2.489008
   scf:   19     -896.082696     -896.074920     -896.093743  0.002938 -5.798038  2.490214
   scf:   20     -896.585181     -896.728106     -896.733061  0.294055 -5.526862  0.421706
   scf:   21     -896.666194     -896.720248     -896.727786  0.067973 -5.571113  0.669028
   scf:   22     -896.709454     -896.715629     -896.723894  0.019408 -5.629649  0.614767
   scf:   23     -896.743259     -896.733014     -896.740951  0.025115 -5.653285  0.258163
   scf:   24     -896.739028     -896.736785     -896.744158  0.012487 -5.652686  0.128077
   scf:   25     -896.508082     -896.665549     -896.668086  0.095146 -5.615327  0.818418
   scf:   26     -896.766479     -896.729142     -896.732762  0.053196 -5.657349  0.344558
   scf:   27     -896.737140     -896.740714     -896.745572  0.039495 -5.670326  0.039034
   scf:   28     -896.741102     -896.740974     -896.745703  0.003752 -5.668584  0.008455
   scf:   29     -896.738310     -896.740041     -896.744907  0.009149 -5.675446  0.086105
   scf:   30     -896.739208     -896.739638     -896.744584  0.001844 -5.675392  0.102588
   scf:   31     -896.741522     -896.741119     -896.745707  0.010489 -5.671732  0.005837
   scf:   32     -896.740817     -896.741021     -896.745601  0.003485 -5.672694  0.031807
   scf:   33     -896.741342     -896.741235     -896.745713  0.003333 -5.671802  0.004960
   scf:   34     -896.741228     -896.741231     -896.745714  0.000177 -5.672741  0.005108
   scf:   35     -896.740926     -896.741084     -896.745708  0.000986 -5.671975  0.009764
   scf:   36     -896.741160     -896.741126     -896.745717  0.000918 -5.671497  0.004904
   scf:   37     -896.741205     -896.741166     -896.745717  0.000995 -5.671968  0.002362
   scf:   38     -896.741141     -896.741154     -896.745716  0.000222 -5.671858  0.001818
   scf:   39     -896.741137     -896.741145     -896.745716  0.000037 -5.671749  0.001972
   scf:   40     -896.741180     -896.741163     -896.745719  0.000676 -5.670215  0.002693
   scf:   41     -896.741152     -896.741157     -896.745719  0.000039 -5.670146  0.002700
   scf:   42     -896.741182     -896.741170     -896.745719  0.000039 -5.670305  0.002536
   scf:   43     -896.741133     -896.741151     -896.745719  0.000071 -5.670876  0.002055
   scf:   44     -896.741154     -896.741153     -896.745719  0.000013 -5.670879  0.002093
   scf:   45     -896.741154     -896.741153     -896.745719  0.000023 -5.670870  0.002134
   scf:   46     -896.741157     -896.741155     -896.745719  0.000026 -5.671156  0.001812
   scf:   47     -896.741162     -896.741159     -896.745719  0.000108 -5.671359  0.001512
   scf:   48     -896.741170     -896.741165     -896.745719  0.000128 -5.671396  0.001282
   scf:   49     -896.741189     -896.741177     -896.745719  0.000302 -5.670876  0.000942
   scf:   50     -896.741182     -896.741179     -896.745719  0.000035 -5.670950  0.000906

SCF Convergence by DM+H criterion
max |DM_out - DM_in|         :     0.0000354137
max |H_out - H_in|      (eV) :     0.0009059024
SCF cycle converged after 50 iterations

Using DM_out to compute the final energy and forces
No. of atoms with KB's overlaping orbs in proc 0. Max # of overlaps:       4      26

siesta: E_KS(eV) =             -896.7412

siesta: Atomic forces (eV/Ang):
----------------------------------------
   Tot   -0.002652    0.011495   -0.005279
----------------------------------------
   Max    2.255266
   Res    1.271125    sqrt( Sum f_i^2 / 3N )
----------------------------------------
   Max    2.255266    constrained

Stress tensor Voigt[x,y,z,yz,xz,xy] (kbar):       -3.31       -1.84        3.04        3.65        0.88        7.09
(Free)E + p*V (eV/cell)     -896.3084
Target enthalpy (eV/cell)     -896.7457

siesta: Stress tensor (static) (eV/Ang**3):
         0.002227    0.002355    0.001820
         0.002355    0.001434    0.001243
         0.001820    0.001243    0.002413

siesta: Pressure (static):         -3.24393181  kBar

siesta: Stress tensor (total) (eV/Ang**3):
        -0.002064    0.004426    0.000550
         0.004426   -0.001146    0.002280
         0.000550    0.002280    0.001897

siesta: Pressure (total):          0.70063187  kBar

siesta: Temp_ion =    9723.903 K

coxmol: Writing XMOL coordinates into file xoc.xyz                                                                                                                                                                                                                             

siesta: Program's energy decomposition (eV):
siesta: Ebs     =      -186.970212
siesta: Eions   =      1581.702395
siesta: Ena     =       337.392060
siesta: Ekin    =       630.452084
siesta: Enl     =       -90.137263
siesta: Eso     =         0.000000
siesta: Edftu   =         0.000000
siesta: DEna    =        10.675048
siesta: DUscf   =         1.485319
siesta: DUext   =         0.000000
siesta: Ex      =      -191.048754
siesta: Ec      =       -13.857277
siesta: Exc     =      -204.906031
siesta: EbV     =         0.000000
siesta: eta*DQ  =         0.000000
siesta: Emadel  =         0.000000
siesta: Emeta   =         0.000000
siesta: Emolmec =         0.000000
siesta: Ekinion =         3.770735
siesta: Eharris =      -892.970447
siesta: Etot    =      -892.970444
siesta: FreeEng =      -892.974984

siesta: Final energy (eV):
siesta:  Band Struct. =    -186.970212
siesta:       Kinetic =     630.452084
siesta:       Hartree =     929.512862
siesta:         Edftu =       0.000000
siesta:       Eso     =       0.000000
siesta:    Ext. field =       0.000000
siesta:         Exch. =    -191.048754
siesta:         Corr. =     -13.857277
siesta:     Bulk bias =       0.000000
siesta:   Exch.-corr. =    -204.906031
siesta:  Ion-electron =   -2415.192213
siesta:       Ion-ion =     163.392118
siesta:       Ekinion =       3.770735
siesta: D3 dispersion =       0.000000
siesta:         Total =    -892.970444
siesta:         Fermi =      -5.670950

siesta: Atomic forces (eV/Ang):
siesta:      1   -0.717541   -0.506170   -2.210376
siesta:      2   -1.590102   -1.209747   -0.354141
siesta:      3    0.781143    0.941313    0.303972
siesta:      4    1.523848    0.786099    2.255266
siesta: ----------------------------------------
siesta:    Tot   -0.002652    0.011495   -0.005279

siesta: Stress tensor (static) (eV/Ang**3):
siesta:     0.002227    0.002355    0.001820
siesta:     0.002355    0.001434    0.001243
siesta:     0.001820    0.001243    0.002413

siesta: Cell volume =       1000.001196 Ang**3

siesta: Pressure (static):
siesta:                Solid            Molecule  Units
siesta:          -0.00002205         -0.00000009  Ry/Bohr**3
siesta:          -0.00202470         -0.00000782  eV/Ang**3
siesta:          -3.24393181         -0.01253225  kBar
(Free)E+ p_basis*V_orbitals  =        -895.987010
(Free)Eharris+ p_basis*V_orbitals  =        -895.987013

siesta: Electric dipole (a.u.)  =   -0.115858   -0.449282   -0.386173
siesta: Electric dipole (Debye) =   -0.294483   -1.141960   -0.981554

cite: Please see "xoc.bib" for an exhaustive BiBTeX file.
cite: Please clearly indicate Siesta version in published work: 5.2.1
cite: This calculation has made use of the following articles
cite: which are encouraged to be cited in a published work.
        Primary SIESTA paper
          DOI: www.doi.org/10.1088/0953-8984/14/11/302


timer: Elapsed wall time (sec) =     391.528
timer: CPU execution times (sec):

Routine            Calls   Time/call    Tot.time        %
siesta                 1    1813.697    1813.697   100.00
Setup                  1       1.089       1.089     0.06
bands                  1       0.000       0.000     0.00
KSV_init               1       0.000       0.000     0.00
IterGeom             100      18.126    1812.607    99.94
geom_init            100       0.196      19.612     1.08
state_init           100       0.001       0.103     0.01
hsparse              100       0.000       0.003     0.00
overlap              100       0.001       0.075     0.00
Setup_H0             100       0.092       9.175     0.51
naefs                200       0.000       0.003     0.00
dnaefs               200       0.000       0.003     0.00
MolMec               200       0.000       0.000     0.00
kinefsm              200       0.000       0.086     0.00
nlefsm               200       0.003       0.546     0.03
DHSCF_Init           100       0.086       8.624     0.48
DHSCF1               100       0.008       0.789     0.04
InitMesh             100       0.008       0.787     0.04
INITMESH             100       0.000       0.000     0.00
DHSCF2               100       0.078       7.835     0.43
REMESH               100       0.003       0.308     0.02
REORD               8240       0.002      17.493     0.96
PHION                100       0.038       3.793     0.21
COMM_BSC           13780       0.002      23.132     1.28
POISON              3470       0.153     531.561    29.31
fft                 6940       0.055     378.934    20.89
setup_H             3270       0.545    1782.095    98.26
DHSCF               3370       0.533    1796.765    99.07
DHSCF3              3370       0.531    1790.046    98.70
rhoofd              3370       0.036     121.509     6.70
XC                  3370       0.287     965.969    53.26
GXC-CellXC          3370       0.274     922.892    50.88
gridxc@cellXC       3370       0.274     922.807    50.88
vmat                3370       0.004      14.152     0.78
IterSCF             3170       0.560    1775.794    97.91
compute_dm          3170       0.001       3.522     0.19
diagon              3170       0.001       3.476     0.19
r-eigvec            3170       0.001       3.003     0.17
r-buildHS           3170       0.000       0.008     0.00
rdiag               3170       0.001       2.983     0.16
rdiag1              3170       0.000       0.014     0.00
rdiag2              3170       0.000       0.043     0.00
rdiag3              3170       0.001       2.764     0.15
rdiag4              3170       0.000       0.116     0.01
r-buildD            3170       0.000       0.310     0.02
MIXER               3070       0.000       0.101     0.01
PostSCF              100       0.171      17.108     0.94
FINAL_HF             100       0.171      17.106     0.94
DHSCF4               100       0.067       6.709     0.37
dfscf                100       0.050       4.990     0.28
overfsm              100       0.000       0.016     0.00
writeHSX             100       0.000       0.011     0.00
state_analysis       100       0.000       0.016     0.00
siesta_move          100       0.000       0.030     0.00
Analysis               1       0.000       0.000     0.00
optical                1       0.000       0.000     0.00
  

>> End of run:  19-MAR-2025  16:15:41
Job completed
Job completed
