Siesta Version  : 4.1.5
Architecture    : unknown
Compiler version: GNU Fortran (GCC) 9.3.0
Compiler flags  : mpifort -fPIC -O2 -ftree-vectorize -march=native -mno-recip
PP flags        : -DFC_HAVE_ABORT -DF2003 -DMPI -DCDF -DNCDF -DNCDF_4 -DNCDF_PARALLEL -I/dragoffs/sw/foss/0.2/software/netCDF-Fortran/4.5.2-gompi-2020a/include -DSIESTA__ELPA -I/dragofs/sw/foss/0.2/software/ELPA/2019.11.001-foss-2020a/include/elpa-2019.11.001/modules -DSIESTA__METIS
Libraries       : libncdf.a libfdict.a -lscalapack -lopenblas -lgfortran -lnetcdff -L/dragofs/ssw/foss/0.2/software/ELPA/2019.11.001-foss-2020a/lib -lelpa -L/dragofs/sw/foss/0.2/software/METIS/5.1.0-GCCcore-9.3.0/lib -lmetis
PARALLEL version
NetCDF support
NetCDF-4 support
NetCDF-4 MPI-IO support
METIS ordering support

* Running in serial mode with MPI
>> Start of run:  17-MAR-2023  15:43:52

                           ***********************       
                           *  WELCOME TO SIESTA  *       
                           ***********************       

reinit: Reading from standard input
reinit: Dumped input in INPUT_TMP.64717
************************** Dump of input data file ****************************
SystemName H2 + O2 -> H2O2 reaction # Descriptive name of the system
SystemLabel            xoc         # Short name for naming files
# Species and atoms
NumberOfSpecies       2
NumberOfAtoms         4
%block ChemicalSpeciesLabel
  1   8  O
  2   1  H
%endblock ChemicalSpeciesLabel
# Basis
%block PAO.Basis
O    3     -0.18518
 n=2   0   2   E    87.07381     4.73934
     7.32942     4.60369
     1.00000     1.00000
 n=2   1   2   E    68.29553     4.97037
     6.60250     3.04671
     1.00000     1.00000
 n=3   2   1   E    91.07115     3.95115
     6.89342
     1.00000
H     2      0.22
 n=1    0    2   E      2.07      0.00
   4.971   1.771
   1.000   1.000
 n=2    1    1   E      0.89      0.01
   4.988
   1.000
%endblock PAO.Basis
LatticeConstant       1.0000 Ang
%block LatticeVectors
20.00000   0.000000  0.000000
 0.00000  20.000000  0.000000
 0.00000   0.000000 20.000000
%endblock LatticeVectors
%block kgrid_Monkhorst_Pack
   1  0  0  0.
   0  1  0  0.
   0  0  1  0.
%endblock Kgrid_Monkhorst_Pack
xc.functional         GGA           # Exchange-correlation functional
xc.authors            PBE           # Exchange-correlation version
#SpinPolarized         true          # Logical parameters are: yes or no
MeshCutoff           200. Ry        # Mesh cutoff. real space mesh
# SCF options
#SCFMustConvergence     true
MaxSCFIterations       150          # Maximum number of SCF iter
DM.MixingWeight       0.02          # New DM amount for next SCF cycle
DM.Tolerance          3.d-4         # Tolerance in maximum difference
                                    # between input and output DM
DM.NumberPulay          6           # to use continuation files
#DM.NumberBroyden       3
#DM.AllowExtrapolation  false
MD.UseSaveData           true
Diag.DivideAndConquer 	true
SolutionMethod        diagon        # OrderN or Diagon
ElectronicTemperature  25 meV       # Temp. for Fermi smearing
# -----------------------------
#  MD options
#  options for a basic MD run
# -----------------------------
# Options to Integrate Equations of motion
MD.TypeOfRun         verlet         # Standard Verlet algrithm
                                    # for Molecular Dynamics
MD.LengthTimeStep         1.0 fs    # time step integration
                                    # Newton eqs of motion
MD.Initial.Time.Step     1          #initial time step of MD
MD.FinalTimeStep         100        #Final time step of MD
# Initial Atomic coordinates and Velocity for MD run
#MD.InitialTemperature   700   K    #Assign initial random velocity from
                                    # a Maxwell-Boltzmann distribution
                                    # for a given temperature
MD.UseSaveXV 		true        # use atomic Positions
                                    # and Velocities from
                                    # a saved XV file
AtomicCoordinatesFormat Ang         #Use Angstroms for atomic coordinates
%block AtomicCoordinatesAndAtomicSpecies
        1.348000        0.000000        0.000000  1  ! O 1
        2.652000        0.000000        0.000000  1  ! O 2
        6.628000        0.000000        0.000000  2  ! H 3
        7.372000        0.000000        0.000000  2  ! H 4
%endblock AtomicCoordinatesAndAtomicSpecies
#MD Output
WriteCoorXmol          true         #Save the final coordinates in .xyz format
WriteMDXmol            true         #Writes the coordinates
                                    #of all atoms at all steps
                                    #in a .ANI file
                                    #in xyz format
WriteMDhistory         true         #writes .MDE and .MD files
                                    # with output data from MD simulation
                                    # MDE contains: Temp, energy, volume, pressure
                                    # (human readable)
                                    # MD contains coords vel lattice vectors
                                    # (unformatted; post-process with iomd.f)
************************** End of input data file *****************************

reinit: -----------------------------------------------------------------------
reinit: System Name: H2 + O2 -> H2O2 reaction
reinit: -----------------------------------------------------------------------
reinit: System Label: xoc
reinit: -----------------------------------------------------------------------

initatom: Reading input for the pseudopotentials and atomic orbitals ----------
Species number:   1 Atomic number:    8 Label: O
Species number:   2 Atomic number:    1 Label: H

Ground state valence configuration:   2s02  2p04
Reading pseudopotential information in formatted form from O.psf

Pseudopotential generated from a relativistic atomic calculation

Valence configuration for pseudopotential generation:
2s( 2.00) rc: 1.14
2p( 4.00) rc: 1.14
3d( 0.00) rc: 1.14
4f( 0.00) rc: 1.14
Ground state valence configuration:   1s01
Reading pseudopotential information in unformatted form from H.vps

Valence configuration for pseudopotential generation:
1s( 1.00) rc: 1.25
2p( 0.00) rc: 1.25
3d( 0.00) rc: 1.25
4f( 0.00) rc: 1.25
For O, standard SIESTA heuristics set lmxkb to 3
 (one more than the basis l, including polarization orbitals).
Use PS.lmax or PS.KBprojectors blocks to override.
For H, standard SIESTA heuristics set lmxkb to 2
 (one more than the basis l, including polarization orbitals).
Use PS.lmax or PS.KBprojectors blocks to override.

<basis_specs>
===============================================================================
O                    Z=   8    Mass=  16.000        Charge=-0.18518    
Lmxo=2 Lmxkb= 3    BasisType=split      Semic=F
L=0  Nsemic=0  Cnfigmx=2
          i=1  nzeta=2  polorb=0  (2s)
            splnorm:   0.15000    
               vcte:    87.074    
               rinn:    4.7393    
               qcoe:    0.0000    
               qyuk:    0.0000    
               qwid:   0.10000E-01
                rcs:    7.3294      4.6037    
            lambdas:    1.0000      1.0000    
L=1  Nsemic=0  Cnfigmx=2
          i=1  nzeta=2  polorb=0  (2p)
            splnorm:   0.15000    
               vcte:    68.296    
               rinn:    4.9704    
               qcoe:    0.0000    
               qyuk:    0.0000    
               qwid:   0.10000E-01
                rcs:    6.6025      3.0467    
            lambdas:    1.0000      1.0000    
L=2  Nsemic=0  Cnfigmx=3
          i=1  nzeta=1  polorb=0  (3d)
            splnorm:   0.15000    
               vcte:    91.071    
               rinn:    3.9512    
               qcoe:    0.0000    
               qyuk:    0.0000    
               qwid:   0.10000E-01
                rcs:    6.8934    
            lambdas:    1.0000    
-------------------------------------------------------------------------------
L=0  Nkbl=1  erefs: 0.17977+309
L=1  Nkbl=1  erefs: 0.17977+309
L=2  Nkbl=1  erefs: 0.17977+309
L=3  Nkbl=1  erefs: 0.17977+309
===============================================================================
</basis_specs>

atom: Called for O                     (Z =   8)

read_vps: Pseudopotential generation method:
read_vps: ATM3      Troullier-Martins                       
Valence charge for ps generation:    6.00000

read_vps: Pseudopotential includes a core correction:
read_vps: Pseudo-core for xc-correction

xc_check: Exchange-correlation functional:
xc_check: GGA Perdew, Burke & Ernzerhof 1996
V l=0 = -2*Zval/r beyond r=  1.1278
V l=1 = -2*Zval/r beyond r=  1.1278
V l=2 = -2*Zval/r beyond r=  1.1278
V l=3 = -2*Zval/r beyond r=  1.1278
All V_l potentials equal beyond r=  1.1278
This should be close to max(r_c) in ps generation
All pots = -2*Zval/r beyond r=  1.1278

VLOCAL1: 99.0% of the norm of Vloc inside     34.126 Ry
VLOCAL1: 99.9% of the norm of Vloc inside     77.774 Ry
atom: Maximum radius for 4*pi*r*r*local-pseudopot. charge    1.37759
atom: Maximum radius for r*vlocal+2*Zval:    1.18566
GHOST: No ghost state for L =  0
GHOST: No ghost state for L =  1
GHOST: No ghost state for L =  2
GHOST: No ghost state for L =  3

KBgen: Kleinman-Bylander projectors: 
   l= 0   rc=  1.360471   el= -1.759790   Ekb=  9.210761   kbcos=  0.328866
   l= 1   rc=  1.360471   el= -0.663797   Ekb= -7.921990   kbcos= -0.392961
   l= 2   rc=  1.791199   el=  0.002031   Ekb= -1.950550   kbcos= -0.003498
   l= 3   rc=  2.107308   el=  0.003153   Ekb= -0.856060   kbcos= -0.000334

KBgen: Total number of Kleinman-Bylander projectors:   16
atom: -------------------------------------------------------------------------

atom: SANKEY-TYPE ORBITALS:
atom: Selected multiple-zeta basis: split     

atom: basis set generated (by rescaling the valence charge)
atom: for an anion of charge  -0.1852

SPLIT: Orbitals with angular momentum L= 0

SPLIT: Basis orbitals for state 2s

   izeta = 1
                 lambda =    1.000000
                     rc =    7.356000
                 energy =   -1.758588
                kinetic =    1.491851
    potential(screened) =   -3.250439
       potential(ionic) =  -11.062471

   izeta = 2
                 rmatch =    4.690281
              splitnorm =    0.003309
                 energy =   -1.757602
* WARNING: effective split_norm is quite small. Orbitals will be very similar.
                kinetic =    1.574378
    potential(screened) =   -3.331980
       potential(ionic) =  -11.238433

SPLIT: Orbitals with angular momentum L= 1

SPLIT: Basis orbitals for state 2p

   izeta = 1
                 lambda =    1.000000
                     rc =    6.655955
                 energy =   -0.659921
                kinetic =    4.410674
    potential(screened) =   -5.070596
       potential(ionic) =  -12.498772

   izeta = 2
                 rmatch =    3.066256
              splitnorm =    0.127283
                 energy =   -0.537509
                kinetic =    6.271972
    potential(screened) =   -6.809481
       potential(ionic) =  -15.130217

SPLIT: Orbitals with angular momentum L= 2

SPLIT: Basis orbitals for state 3d

   izeta = 1
                 lambda =    1.000000
                     rc =    6.997229
                 energy =    0.764795
                kinetic =    1.136799
    potential(screened) =   -0.372004
       potential(ionic) =   -3.984199
atom: Total number of Sankey-type orbitals: 13

atm_pop: Valence configuration (for local Pseudopot. screening):
 2s( 2.00)                                                            
 2p( 4.00)                                                            
 3d( 0.00)                                                            
Vna: chval, zval:    6.00000   6.00000

Vna:  Cut-off radius for the neutral-atom potential:   7.356000
comcore: Pseudo-core radius Rcore=  1.377587

atom: _________________________________________________________________________

<basis_specs>
===============================================================================
H                    Z=   1    Mass=  1.0100        Charge= 0.22000    
Lmxo=1 Lmxkb= 2    BasisType=split      Semic=F
L=0  Nsemic=0  Cnfigmx=1
          i=1  nzeta=2  polorb=0  (1s)
            splnorm:   0.15000    
               vcte:    2.0700    
               rinn:    0.0000    
               qcoe:    0.0000    
               qyuk:    0.0000    
               qwid:   0.10000E-01
                rcs:    4.9710      1.7710    
            lambdas:    1.0000      1.0000    
L=1  Nsemic=0  Cnfigmx=2
          i=1  nzeta=1  polorb=0  (2p)
            splnorm:   0.15000    
               vcte:   0.89000    
               rinn:   0.10000E-01
               qcoe:    0.0000    
               qyuk:    0.0000    
               qwid:   0.10000E-01
                rcs:    4.9880    
            lambdas:    1.0000    
-------------------------------------------------------------------------------
L=0  Nkbl=1  erefs: 0.17977+309
L=1  Nkbl=1  erefs: 0.17977+309
L=2  Nkbl=1  erefs: 0.17977+309
===============================================================================
</basis_specs>

atom: Called for H                     (Z =   1)

read_vps: Pseudopotential generation method:
read_vps: ATM3      Troullier-Martins                       
Valence charge for ps generation:    1.00000

xc_check: Exchange-correlation functional:
xc_check: GGA Perdew, Burke & Ernzerhof 1996
V l=0 = -2*Zval/r beyond r=  1.2343
V l=1 = -2*Zval/r beyond r=  1.2189
V l=2 = -2*Zval/r beyond r=  1.2189
All V_l potentials equal beyond r=  1.2343
This should be close to max(r_c) in ps generation
All pots = -2*Zval/r beyond r=  1.2343

VLOCAL1: 99.0% of the norm of Vloc inside     28.493 Ry
VLOCAL1: 99.9% of the norm of Vloc inside     64.935 Ry
atom: Maximum radius for 4*pi*r*r*local-pseudopot. charge    1.45251
atom: Maximum radius for r*vlocal+2*Zval:    1.21892
GHOST: No ghost state for L =  0
GHOST: No ghost state for L =  1
GHOST: No ghost state for L =  2

KBgen: Kleinman-Bylander projectors: 
   l= 0   rc=  1.364359   el= -0.477200   Ekb= -2.021939   kbcos= -0.344793
   l= 1   rc=  1.434438   el=  0.001076   Ekb= -0.443447   kbcos= -0.022843
   l= 2   rc=  1.470814   el=  0.002010   Ekb= -0.140543   kbcos= -0.002863

KBgen: Total number of Kleinman-Bylander projectors:    9
atom: -------------------------------------------------------------------------

atom: SANKEY-TYPE ORBITALS:
atom: Selected multiple-zeta basis: split     

atom: basis set generated (by rescaling the valence charge)
atom: for a cation of charge   0.2200

SPLIT: Orbitals with angular momentum L= 0

SPLIT: Basis orbitals for state 1s

   izeta = 1
                 lambda =    1.000000
                     rc =    4.950554
                 energy =   -0.678603
                kinetic =    1.118239
    potential(screened) =   -1.796842
       potential(ionic) =   -2.106311

   izeta = 2
                 rmatch =    1.774652
              splitnorm =    0.672347
                 energy =    1.027037
                kinetic =    4.730146
    potential(screened) =   -3.703109
       potential(ionic) =   -3.968059

SPLIT: Orbitals with angular momentum L= 1

SPLIT: Basis orbitals for state 2p

   izeta = 1
                 lambda =    1.000000
                     rc =    5.075940
                 energy =    0.310352
                kinetic =    0.887169
    potential(screened) =   -0.576817
       potential(ionic) =   -0.872649
atom: Total number of Sankey-type orbitals:  5

atm_pop: Valence configuration (for local Pseudopot. screening):
 1s( 1.00)                                                            
 2p( 0.00)                                                            
Vna: chval, zval:    1.00000   1.00000

Vna:  Cut-off radius for the neutral-atom potential:   4.950554

atom: _________________________________________________________________________

prinput: Basis input ----------------------------------------------------------

PAO.BasisType split     

%block ChemicalSpeciesLabel
    1    8 O                       # Species index, atomic number, species label
    2    1 H                       # Species index, atomic number, species label
%endblock ChemicalSpeciesLabel

%block PAO.Basis                 # Define Basis set
O                     3  -0.185            # Label, l-shells, ionic net charge
 n=2   0   2                         # n, l, Nzeta 
   7.356      4.690   
   1.000      1.000   
 n=2   1   2                         # n, l, Nzeta 
   6.656      3.066   
   1.000      1.000   
 n=3   2   1                         # n, l, Nzeta 
   6.997   
   1.000   
H                     2   0.220            # Label, l-shells, ionic net charge
 n=1   0   2                         # n, l, Nzeta 
   4.951      1.775   
   1.000      1.000   
 n=2   1   1                         # n, l, Nzeta 
   5.076   
   1.000   
%endblock PAO.Basis

prinput: ----------------------------------------------------------------------

Dumping basis to NetCDF file O.ion.nc
Dumping basis to NetCDF file H.ion.nc
coor:   Atomic-coordinates input format  =     Cartesian coordinates
coor:                                          (in Angstroms)

ioxv: Reading coordinates and velocities from file
! Info in XV file prevails over previous structure input
WARNING: xoc.VERLET_RESTART not found--reading only XV file and moving back 1 time step using Euler

siesta: Atomic coordinates (Bohr) and species
siesta:      2.54735  -0.00100  -0.00070  1        1
siesta:      5.01155  -0.00100  -0.00070  1        2
siesta:     12.94052   0.01600   0.01130  2        3
siesta:     14.34566   0.01600   0.01130  2        4

siesta: System type = chain     

initatomlists: Number of atoms, orbitals, and projectors:      4    36    50

coxmol: Writing XMOL coordinates into file xoc.xyz                                                             

siesta: ******************** Simulation parameters ****************************
siesta:
siesta: The following are some of the parameters of the simulation.
siesta: A complete list of the parameters used, including default values,
siesta: can be found in file out.fdf
siesta:
redata: Spin configuration                          = none
redata: Number of spin components                   = 1
redata: Time-Reversal Symmetry                      = T
redata: Spin spiral                                 = F
redata: Long output                                 =   F
redata: Number of Atomic Species                    =        2
redata: Charge density info will appear in .RHO file
redata: Write Mulliken Pop.                         = NO
redata: Matel table size (NRTAB)                    =     1024
redata: Mesh Cutoff                                 =   200.0000 Ry
redata: Net charge of the system                    =     0.0000 |e|
redata: Min. number of SCF Iter                     =        0
redata: Max. number of SCF Iter                     =      150
redata: SCF convergence failure will abort job
redata: SCF mix quantity                            = Hamiltonian
redata: Mix DM or H after convergence               =   F
redata: Recompute H after scf cycle                 =   F
redata: Mix DM in first SCF step                    =   T
redata: Write Pulay info on disk                    =   F
redata: New DM Occupancy tolerance                  = 0.000000000001
redata: No kicks to SCF
redata: DM Mixing Weight for Kicks                  =     0.5000
redata: Require Harris convergence for SCF          =   F
redata: Harris energy tolerance for SCF             =     0.000100 eV
redata: Require DM convergence for SCF              =   T
redata: DM tolerance for SCF                        =     0.000300
redata: Require EDM convergence for SCF             =   F
redata: EDM tolerance for SCF                       =     0.001000 eV
redata: Require H convergence for SCF               =   T
redata: Hamiltonian tolerance for SCF               =     0.001000 eV
redata: Require (free) Energy convergence for SCF   =   F
redata: (free) Energy tolerance for SCF             =     0.000100 eV
redata: Using Saved Data (generic)                  =   F
redata: Use continuation files for DM               =   F
redata: Neglect nonoverlap interactions             =   F
redata: Method of Calculation                       = Diagonalization
redata: Electronic Temperature                      =   290.1109 K
redata: Fix the spin of the system                  =   F
redata: Dynamics option                             = Verlet MD run
redata: Initial MD time step                        =        1
redata:   Final MD time step                        =      100
redata: Length of MD time step                      =     1.0000 fs
redata: Initial Temperature of MD run               =     0.0000 K
redata: Perform a MD quench                         =   F
mix.SCF: Pulay mixing                            = Pulay
mix.SCF:    Variant                              = stable
mix.SCF:    History steps                        = 6
mix.SCF:    Linear mixing weight                 =     0.020000
mix.SCF:    Mixing weight                        =     0.020000
mix.SCF:    SVD condition                        = 0.1000E-07
redata: Save all siesta data in one NC              =   F
redata: ***********************************************************************

%block SCF.Mixers
  Pulay
%endblock SCF.Mixers

%block SCF.Mixer.Pulay
  # Mixing method
  method pulay
  variant stable

  # Mixing options
  weight 0.0200
  weight.linear 0.0200
  history 6
%endblock SCF.Mixer.Pulay

Size of DM history Fstack: 1
Total number of electrons:    14.000000
Total ionic charge:    14.000000

* ProcessorY, Blocksize:    1  24


* Orbital distribution balance (max,min):    36    36

 Kpoints in:            1 . Kpoints trimmed:            1

siesta: k-grid: Number of k-points =     1
siesta: k-grid: Cutoff (effective) =     5.000 Ang
siesta: k-grid: Supercell and displacements
siesta: k-grid:    1   0   0      0.000
siesta: k-grid:    0   1   0      0.000
siesta: k-grid:    0   0   1      0.000

diag: Algorithm                                     = D&C
diag: Parallel over k                               =   F
diag: Use parallel 2D distribution                  =   F
diag: Parallel block-size                           = 24
diag: Parallel distribution                         =     1 x     1
diag: Used triangular part                          = Lower
diag: Absolute tolerance                            =  0.100E-15
diag: Orthogonalization factor                      =  0.100E-05
diag: Memory factor                                 =  1.0000


ts: **************************************************************
ts: Save H and S matrices                           =    F
ts: Save DM and EDM matrices                        =    F
ts: Only save the overlap matrix S                  =    F
ts: **************************************************************

************************ Begin: TS CHECKS AND WARNINGS ************************
************************ End: TS CHECKS AND WARNINGS **************************


                     ====================================
                        Begin MD step =      1
                     ====================================

outcell: Unit cell vectors (Ang):
       10.000000    0.000000    0.000000
        0.000000   10.000000    0.000000
        0.000000    0.000000   10.000000

outcell: Cell vector modules (Ang)   :   10.000000   10.000000   10.000000
outcell: Cell angles (23,13,12) (deg):     90.0000     90.0000     90.0000
outcell: Cell volume (Ang**3)        :   1000.0000
Gamma-point calculation with multiply-connected orbital pairs
Folding of H and S implicitly performed
<dSpData1D:S at geom step 1
  <sparsity:sparsity for geom step 1
    nrows_g=36 nrows=36 sparsity=.9522 nnzs=1234, refcount: 7>
  <dData1D:(new from dSpData1D) n=1234, refcount: 1>
refcount: 1>
new_DM -- step:     1
Initializing Density Matrix...
DM filled with atomic data:
<dSpData2D:DM initialized from atoms
  <sparsity:sparsity for geom step 1
    nrows_g=36 nrows=36 sparsity=.9522 nnzs=1234, refcount: 8>
  <dData2D:DM n=1234 m=1, refcount: 1>
refcount: 1>
No. of atoms with KB's overlaping orbs in proc 0. Max # of overlaps:       4      29
New grid distribution:   1
           1       1:   45    1:   45    1:   45

InitMesh: MESH =    90 x    90 x    90 =      729000
InitMesh: (bp) =    45 x    45 x    45 =       91125
InitMesh: Mesh cutoff (required, used) =   200.000   223.865 Ry
ExtMesh (bp) on 0 =   117 x   117 x   117 =     1601613
PhiOnMesh: Number of (b)points on node 0 =                91125
PhiOnMesh: nlist on node 0 =               451185

stepf: Fermi-Dirac step function

siesta: Program's energy decomposition (eV):
siesta: Ebs     =      -190.948608
siesta: Eions   =      1592.294315
siesta: Ena     =       380.201806
siesta: Ekin    =       663.410568
siesta: Enl     =      -100.295344
siesta: Eso     =         0.000000
siesta: Edftu   =         0.000000
siesta: DEna    =       -43.048669
siesta: DUscf   =         3.005361
siesta: DUext   =         0.000000
siesta: Exc     =      -210.895422
siesta: eta*DQ  =         0.000000
siesta: Emadel  =         0.000000
siesta: Emeta   =         0.000000
siesta: Emolmec =         0.000000
siesta: Ekinion =         0.000000
siesta: Eharris =      -900.674553
siesta: Etot    =      -899.916014
siesta: FreeEng =      -899.985329

        iscf     Eharris(eV)        E_KS(eV)     FreeEng(eV)     dDmax    Ef(eV) dHmax(eV)
   scf:    1     -900.674553     -899.916014     -899.985329  3.413249 -9.442729  4.724947
timer: Routine,Calls,Time,% = IterSCF        1       2.673  56.54
   scf:    2     -899.998081     -899.957173     -900.026488  0.062554 -9.352686  4.566441
   scf:    3     -900.969105     -900.591007     -900.660322  2.454578 -6.787065  0.575318
   scf:    4     -900.031561     -900.361033     -900.430348  1.904736 -5.438015  3.263676
   scf:    5     -900.730575     -900.602649     -900.671963  1.683958 -6.849871  0.053052
   scf:    6     -900.602630     -900.602642     -900.671957  0.012677 -6.838781  0.049508
   scf:    7     -900.588048     -900.596797     -900.666112  0.261051 -7.079615  0.509215
   scf:    8     -900.606462     -900.602575     -900.671889  0.194280 -6.879776  0.085347
   scf:    9     -900.602816     -900.602705     -900.672020  0.012400 -6.860707  0.044301
   scf:   10     -900.602765     -900.602749     -900.672064  0.022979 -6.836864  0.010970
   scf:   11     -900.602746     -900.602749     -900.672063  0.004406 -6.840225  0.003150
   scf:   12     -900.602749     -900.602749     -900.672064  0.000423 -6.839478  0.001749
   scf:   13     -900.602751     -900.602751     -900.672065  0.001087 -6.838942  0.000089
   scf:   14     -900.602751     -900.602751     -900.672065  0.000005 -6.838937  0.000089

SCF Convergence by DM+H criterion
max |DM_out - DM_in|         :     0.0000047629
max |H_out - H_in|      (eV) :     0.0000885796
SCF cycle converged after 14 iterations

Using DM_out to compute the final energy and forces
No. of atoms with KB's overlaping orbs in proc 0. Max # of overlaps:       4      29

siesta: E_KS(eV) =             -900.6028

siesta: E_KS - E_eggbox =      -900.6028

siesta: Atomic forces (eV/Ang):
----------------------------------------
   Tot    0.000391    0.000555    0.000431
----------------------------------------
   Max    0.103921
   Res    0.042733    sqrt( Sum f_i^2 / 3N )
----------------------------------------
   Max    0.103921    constrained

Stress tensor Voigt[x,y,z,yz,xz,xy] (kbar):      -16.32       -0.42       -0.25       -0.10        0.05        0.26
(Free)E + p*V (eV/cell)     -897.1396
Target enthalpy (eV/cell)     -900.6721

siesta: Stress tensor (static) (eV/Ang**3):
         0.000014   -0.000000   -0.000000
        -0.000000    0.000006    0.000000
        -0.000000    0.000000    0.000006

siesta: Pressure (static):         -0.01370007  kBar

siesta: Stress tensor (total) (eV/Ang**3):
        -0.010184    0.000163    0.000029
         0.000163   -0.000259   -0.000060
         0.000029   -0.000060   -0.000154

siesta: Pressure (total):          5.65977472  kBar

siesta: Temp_ion =   13797.487 K

                     ====================================
                        Begin MD step =      2
                     ====================================

outcell: Unit cell vectors (Ang):
       10.000000    0.000000    0.000000
        0.000000   10.000000    0.000000
        0.000000    0.000000   10.000000

outcell: Cell vector modules (Ang)   :   10.000000   10.000000   10.000000
outcell: Cell angles (23,13,12) (deg):     90.0000     90.0000     90.0000
outcell: Cell volume (Ang**3)        :   1000.0000
Gamma-point calculation with multiply-connected orbital pairs
Folding of H and S implicitly performed
<dSpData1D:S at geom step 2
  <sparsity:sparsity for geom step 2
    nrows_g=36 nrows=36 sparsity=.9383 nnzs=1216, refcount: 7>
  <dData1D:(new from dSpData1D) n=1216, refcount: 1>
refcount: 1>
new_DM -- step:     2
Re-using DM from previous geometries...
Number of DMs in history: 1
 DM extrapolation coefficients: 
1   1.00000
New DM after history re-use:
<dSpData2D:SpM extrapolated using coords
  <sparsity:sparsity for geom step 2
    nrows_g=36 nrows=36 sparsity=.9383 nnzs=1216, refcount: 9>
  <dData2D:(temp array for extrapolation) n=1216 m=1, refcount: 1>
refcount: 1>
Note: For starting DM, Qtot, Tr[D*S] =         14.00000000         14.01600250
No. of atoms with KB's overlaping orbs in proc 0. Max # of overlaps:       4      26
New grid distribution:   1
           1       1:   45    1:   45    1:   45

InitMesh: MESH =    90 x    90 x    90 =      729000
InitMesh: (bp) =    45 x    45 x    45 =       91125
InitMesh: Mesh cutoff (required, used) =   200.000   223.865 Ry
ExtMesh (bp) on 0 =   117 x   117 x   117 =     1601613
PhiOnMesh: Number of (b)points on node 0 =                91125
PhiOnMesh: nlist on node 0 =               451289

        iscf     Eharris(eV)        E_KS(eV)     FreeEng(eV)     dDmax    Ef(eV) dHmax(eV)
   scf:    1     -900.466194     -900.593284     -900.662599  0.185864 -6.884127  0.180003
   scf:    2     -900.592618     -900.593524     -900.662831  0.196876 -6.723593  0.171612
   scf:    3     -900.594372     -900.594054     -900.663368  0.081475 -6.789390  0.026843
   scf:    4     -900.594009     -900.594080     -900.663393  0.008915 -6.785328  0.019017
   scf:    5     -900.594109     -900.594105     -900.663420  0.004191 -6.788125  0.018732
   scf:    6     -900.594066     -900.594090     -900.663404  0.021882 -6.771109  0.032971
   scf:    7     -900.594051     -900.594092     -900.663406  0.031001 -6.797031  0.034978
   scf:    8     -900.594125     -900.594112     -900.663427  0.012258 -6.784716  0.006138
   scf:    9     -900.594113     -900.594113     -900.663428  0.001766 -6.782817  0.000094
   scf:   10     -900.594113     -900.594113     -900.663428  0.000018 -6.782816  0.000093

SCF Convergence by DM+H criterion
max |DM_out - DM_in|         :     0.0000178396
max |H_out - H_in|      (eV) :     0.0000930718
SCF cycle converged after 10 iterations

Using DM_out to compute the final energy and forces
No. of atoms with KB's overlaping orbs in proc 0. Max # of overlaps:       4      26

siesta: E_KS(eV) =             -900.5941

siesta: Atomic forces (eV/Ang):
----------------------------------------
   Tot    0.000464    0.000529    0.000320
----------------------------------------
   Max    0.627675
   Res    0.337992    sqrt( Sum f_i^2 / 3N )
----------------------------------------
   Max    0.627675    constrained

Stress tensor Voigt[x,y,z,yz,xz,xy] (kbar):      -18.07       -0.42       -0.25       -0.10        0.00        0.22
(Free)E + p*V (eV/cell)     -896.7658
Target enthalpy (eV/cell)     -900.6634

siesta: Stress tensor (static) (eV/Ang**3):
        -0.001078   -0.000029   -0.000027
        -0.000029    0.000005   -0.000001
        -0.000027   -0.000001    0.000004

siesta: Pressure (static):          0.57131209  kBar

siesta: Stress tensor (total) (eV/Ang**3):
        -0.011276    0.000135    0.000002
         0.000135   -0.000261   -0.000061
         0.000002   -0.000061   -0.000156

siesta: Pressure (total):          6.24478689  kBar

siesta: Temp_ion =   13778.958 K

                     ====================================
                        Begin MD step =      3
                     ====================================

outcell: Unit cell vectors (Ang):
       10.000000    0.000000    0.000000
        0.000000   10.000000    0.000000
        0.000000    0.000000   10.000000

outcell: Cell vector modules (Ang)   :   10.000000   10.000000   10.000000
outcell: Cell angles (23,13,12) (deg):     90.0000     90.0000     90.0000
outcell: Cell volume (Ang**3)        :   1000.0000
Gamma-point calculation with multiply-connected orbital pairs
Folding of H and S implicitly performed
<dSpData1D:S at geom step 3
  <sparsity:sparsity for geom step 3
    nrows_g=36 nrows=36 sparsity=.9522 nnzs=1234, refcount: 7>
  <dData1D:(new from dSpData1D) n=1234, refcount: 1>
refcount: 1>
new_DM -- step:     3
Re-using DM from previous geometries...
Number of DMs in history: 1
 DM extrapolation coefficients: 
1   1.00000
New DM after history re-use:
<dSpData2D:SpM extrapolated using coords
  <sparsity:sparsity for geom step 3
    nrows_g=36 nrows=36 sparsity=.9522 nnzs=1234, refcount: 9>
  <dData2D:(temp array for extrapolation) n=1234 m=1, refcount: 1>
refcount: 1>
No. of atoms with KB's overlaping orbs in proc 0. Max # of overlaps:       4      29
New grid distribution:   1
           1       1:   45    1:   45    1:   45

InitMesh: MESH =    90 x    90 x    90 =      729000
InitMesh: (bp) =    45 x    45 x    45 =       91125
InitMesh: Mesh cutoff (required, used) =   200.000   223.865 Ry
ExtMesh (bp) on 0 =   117 x   117 x   117 =     1601613
PhiOnMesh: Number of (b)points on node 0 =                91125
PhiOnMesh: nlist on node 0 =               451282

        iscf     Eharris(eV)        E_KS(eV)     FreeEng(eV)     dDmax    Ef(eV) dHmax(eV)
   scf:    1     -900.417666     -900.587975     -900.657289  0.265973 -6.725909  0.072736
   scf:    2     -900.587445     -900.587952     -900.657252  0.077420 -6.735992  0.064704
   scf:    3     -900.588362     -900.588212     -900.657524  0.031657 -6.731838  0.023453
   scf:    4     -900.588136     -900.588243     -900.657555  0.010344 -6.732361  0.008896
   scf:    5     -900.588275     -900.588274     -900.657589  0.003937 -6.732102  0.002461
   scf:    6     -900.588273     -900.588274     -900.657589  0.002945 -6.732049  0.003581
   scf:    7     -900.588275     -900.588275     -900.657590  0.001012 -6.731197  0.000657
   scf:    8     -900.588275     -900.588275     -900.657590  0.000507 -6.731263  0.000243
   scf:    9     -900.588275     -900.588275     -900.657590  0.000048 -6.731288  0.000171

SCF Convergence by DM+H criterion
max |DM_out - DM_in|         :     0.0000479700
max |H_out - H_in|      (eV) :     0.0001714148
SCF cycle converged after 9 iterations

Using DM_out to compute the final energy and forces
No. of atoms with KB's overlaping orbs in proc 0. Max # of overlaps:       4      29

siesta: E_KS(eV) =             -900.5883

siesta: Atomic forces (eV/Ang):
----------------------------------------
   Tot    0.000472    0.000129   -0.000087
----------------------------------------
   Max    1.130381
   Res    0.509387    sqrt( Sum f_i^2 / 3N )
----------------------------------------
   Max    1.130381    constrained

Stress tensor Voigt[x,y,z,yz,xz,xy] (kbar):      -19.05       -0.43       -0.26       -0.11       -0.05        0.12
(Free)E + p*V (eV/cell)     -896.5514
Target enthalpy (eV/cell)     -900.6576

siesta: Stress tensor (static) (eV/Ang**3):
        -0.001708   -0.000073   -0.000050
        -0.000073    0.000000   -0.000005
        -0.000050   -0.000005   -0.000002

siesta: Pressure (static):          0.91313020  kBar

siesta: Stress tensor (total) (eV/Ang**3):
        -0.011888    0.000077   -0.000033
         0.000076   -0.000266   -0.000067
        -0.000033   -0.000067   -0.000165

siesta: Pressure (total):          6.57898611  kBar

siesta: Temp_ion =   13763.926 K

                     ====================================
                        Begin MD step =      4
                     ====================================

outcell: Unit cell vectors (Ang):
       10.000000    0.000000    0.000000
        0.000000   10.000000    0.000000
        0.000000    0.000000   10.000000

outcell: Cell vector modules (Ang)   :   10.000000   10.000000   10.000000
outcell: Cell angles (23,13,12) (deg):     90.0000     90.0000     90.0000
outcell: Cell volume (Ang**3)        :   1000.0000
Gamma-point calculation with multiply-connected orbital pairs
Folding of H and S implicitly performed
<dSpData1D:S at geom step 4
  <sparsity:sparsity for geom step 4
    nrows_g=36 nrows=36 sparsity=.9475 nnzs=1228, refcount: 7>
  <dData1D:(new from dSpData1D) n=1228, refcount: 1>
refcount: 1>
new_DM -- step:     4
Re-using DM from previous geometries...
Number of DMs in history: 1
 DM extrapolation coefficients: 
1   1.00000
New DM after history re-use:
<dSpData2D:SpM extrapolated using coords
  <sparsity:sparsity for geom step 4
    nrows_g=36 nrows=36 sparsity=.9475 nnzs=1228, refcount: 9>
  <dData2D:(temp array for extrapolation) n=1228 m=1, refcount: 1>
refcount: 1>
No. of atoms with KB's overlaping orbs in proc 0. Max # of overlaps:       4      30
New grid distribution:   1
           1       1:   45    1:   45    1:   45

InitMesh: MESH =    90 x    90 x    90 =      729000
InitMesh: (bp) =    45 x    45 x    45 =       91125
InitMesh: Mesh cutoff (required, used) =   200.000   223.865 Ry
ExtMesh (bp) on 0 =   117 x   117 x   117 =     1601613
PhiOnMesh: Number of (b)points on node 0 =                91125
PhiOnMesh: nlist on node 0 =               451238

        iscf     Eharris(eV)        E_KS(eV)     FreeEng(eV)     dDmax    Ef(eV) dHmax(eV)
   scf:    1     -900.384708     -900.586090     -900.655403  0.364964 -6.576822  0.229507
   scf:    2     -900.580621     -900.584917     -900.654133  0.078332 -6.758078  0.255198
   scf:    3     -900.587875     -900.586763     -900.656061  0.033152 -6.682183  0.046490
   scf:    4     -900.586395     -900.586914     -900.656218  0.019053 -6.685990  0.027125
   scf:    5     -900.586981     -900.587036     -900.656351  0.010191 -6.689609  0.019429
   scf:    6     -900.586939     -900.587004     -900.656318  0.004511 -6.698536  0.039811
   scf:    7     -900.587052     -900.587050     -900.656365  0.018569 -6.685032  0.009001
   scf:    8     -900.587051     -900.587051     -900.656366  0.003134 -6.688089  0.003069
   scf:    9     -900.587052     -900.587052     -900.656367  0.000744 -6.688610  0.000406
   scf:   10     -900.587052     -900.587052     -900.656367  0.000082 -6.688640  0.000327

SCF Convergence by DM+H criterion
max |DM_out - DM_in|         :     0.0000820114
max |H_out - H_in|      (eV) :     0.0003269657
SCF cycle converged after 10 iterations

Using DM_out to compute the final energy and forces
No. of atoms with KB's overlaping orbs in proc 0. Max # of overlaps:       4      30

siesta: E_KS(eV) =             -900.5871

siesta: Atomic forces (eV/Ang):
----------------------------------------
   Tot   -0.000517   -0.000435   -0.000450
----------------------------------------
   Max    1.552593
   Res    0.630004    sqrt( Sum f_i^2 / 3N )
----------------------------------------
   Max    1.552593    constrained

Stress tensor Voigt[x,y,z,yz,xz,xy] (kbar):      -19.22       -0.43       -0.26       -0.10        0.02        0.08
(Free)E + p*V (eV/cell)     -896.5143
Target enthalpy (eV/cell)     -900.6564

siesta: Stress tensor (static) (eV/Ang**3):
        -0.001839   -0.000068    0.000020
        -0.000068    0.000002    0.000002
         0.000020    0.000002    0.000008

siesta: Pressure (static):          0.97672113  kBar

siesta: Stress tensor (total) (eV/Ang**3):
        -0.011998    0.000049    0.000011
         0.000049   -0.000267   -0.000064
         0.000011   -0.000064   -0.000161

siesta: Pressure (total):          6.63639608  kBar

siesta: Temp_ion =   13757.386 K

                     ====================================
                        Begin MD step =      5
                     ====================================

outcell: Unit cell vectors (Ang):
       10.000000    0.000000    0.000000
        0.000000   10.000000    0.000000
        0.000000    0.000000   10.000000

outcell: Cell vector modules (Ang)   :   10.000000   10.000000   10.000000
outcell: Cell angles (23,13,12) (deg):     90.0000     90.0000     90.0000
outcell: Cell volume (Ang**3)        :   1000.0000
Gamma-point calculation with multiply-connected orbital pairs
Folding of H and S implicitly performed
<dSpData1D:S at geom step 5
  <sparsity:sparsity for geom step 5
    nrows_g=36 nrows=36 sparsity=.9414 nnzs=1220, refcount: 7>
  <dData1D:(new from dSpData1D) n=1220, refcount: 1>
refcount: 1>
new_DM -- step:     5
Re-using DM from previous geometries...
Number of DMs in history: 1
 DM extrapolation coefficients: 
1   1.00000
New DM after history re-use:
<dSpData2D:SpM extrapolated using coords
  <sparsity:sparsity for geom step 5
    nrows_g=36 nrows=36 sparsity=.9414 nnzs=1220, refcount: 9>
  <dData2D:(temp array for extrapolation) n=1220 m=1, refcount: 1>
refcount: 1>
No. of atoms with KB's overlaping orbs in proc 0. Max # of overlaps:       4      30
New grid distribution:   1
           1       1:   45    1:   45    1:   45

InitMesh: MESH =    90 x    90 x    90 =      729000
InitMesh: (bp) =    45 x    45 x    45 =       91125
InitMesh: Mesh cutoff (required, used) =   200.000   223.865 Ry
ExtMesh (bp) on 0 =   117 x   117 x   117 =     1601613
PhiOnMesh: Number of (b)points on node 0 =                91125
PhiOnMesh: nlist on node 0 =               451261

        iscf     Eharris(eV)        E_KS(eV)     FreeEng(eV)     dDmax    Ef(eV) dHmax(eV)
   scf:    1     -900.397298     -900.575367     -900.644679  0.444876 -6.520093  0.282777
   scf:    2     -900.557467     -900.570483     -900.639406  0.134145 -6.744612  0.334768
   scf:    3     -900.578858     -900.575779     -900.645033  0.058382 -6.647067  0.070074
   scf:    4     -900.575041     -900.576361     -900.645653  0.030364 -6.653827  0.034383
   scf:    5     -900.576549     -900.576630     -900.645945  0.012881 -6.658598  0.025184
   scf:    6     -900.576609     -900.576621     -900.645935  0.002310 -6.662742  0.028831
   scf:    7     -900.576663     -900.576650     -900.645964  0.013954 -6.657508  0.001526
   scf:    8     -900.576649     -900.576650     -900.645964  0.000616 -6.657774  0.002051
   scf:    9     -900.576649     -900.576649     -900.645964  0.000732 -6.658282  0.000565
   scf:   10     -900.576650     -900.576650     -900.645964  0.000195 -6.658358  0.000508

SCF Convergence by DM+H criterion
max |DM_out - DM_in|         :     0.0001952067
max |H_out - H_in|      (eV) :     0.0005078426
SCF cycle converged after 10 iterations

Using DM_out to compute the final energy and forces
No. of atoms with KB's overlaping orbs in proc 0. Max # of overlaps:       4      30

siesta: E_KS(eV) =             -900.5766

siesta: Atomic forces (eV/Ang):
----------------------------------------
   Tot    0.000507   -0.000021    0.000513
----------------------------------------
   Max    1.850396
   Res    0.803080    sqrt( Sum f_i^2 / 3N )
----------------------------------------
   Max    1.850396    constrained

Stress tensor Voigt[x,y,z,yz,xz,xy] (kbar):      -19.09       -0.41       -0.19       -0.06        0.24        0.11
(Free)E + p*V (eV/cell)     -896.5490
Target enthalpy (eV/cell)     -900.6460

siesta: Stress tensor (static) (eV/Ang**3):
        -0.001767   -0.000020    0.000168
        -0.000020    0.000017    0.000031
         0.000168    0.000031    0.000052

siesta: Pressure (static):          0.90716971  kBar

siesta: Stress tensor (total) (eV/Ang**3):
        -0.011914    0.000068    0.000149
         0.000068   -0.000256   -0.000037
         0.000149   -0.000037   -0.000121

siesta: Pressure (total):          6.56415527  kBar

siesta: Temp_ion =   13731.955 K

                     ====================================
                        Begin MD step =      6
                     ====================================

outcell: Unit cell vectors (Ang):
       10.000000    0.000000    0.000000
        0.000000   10.000000    0.000000
        0.000000    0.000000   10.000000

outcell: Cell vector modules (Ang)   :   10.000000   10.000000   10.000000
outcell: Cell angles (23,13,12) (deg):     90.0000     90.0000     90.0000
outcell: Cell volume (Ang**3)        :   1000.0000
Gamma-point calculation with multiply-connected orbital pairs
Folding of H and S implicitly performed
<dSpData1D:S at geom step 6
  <sparsity:sparsity for geom step 6
    nrows_g=36 nrows=36 sparsity=.9552 nnzs=1238, refcount: 7>
  <dData1D:(new from dSpData1D) n=1238, refcount: 1>
refcount: 1>
new_DM -- step:     6
Re-using DM from previous geometries...
Number of DMs in history: 1
 DM extrapolation coefficients: 
1   1.00000
New DM after history re-use:
<dSpData2D:SpM extrapolated using coords
  <sparsity:sparsity for geom step 6
    nrows_g=36 nrows=36 sparsity=.9552 nnzs=1238, refcount: 9>
  <dData2D:(temp array for extrapolation) n=1238 m=1, refcount: 1>
refcount: 1>
No. of atoms with KB's overlaping orbs in proc 0. Max # of overlaps:       4      30
New grid distribution:   1
           1       1:   45    1:   45    1:   45

InitMesh: MESH =    90 x    90 x    90 =      729000
InitMesh: (bp) =    45 x    45 x    45 =       91125
InitMesh: Mesh cutoff (required, used) =   200.000   223.865 Ry
ExtMesh (bp) on 0 =   117 x   117 x   117 =     1601613
PhiOnMesh: Number of (b)points on node 0 =                91125
PhiOnMesh: nlist on node 0 =               451217

        iscf     Eharris(eV)        E_KS(eV)     FreeEng(eV)     dDmax    Ef(eV) dHmax(eV)
   scf:    1     -900.472588     -900.566522     -900.635831  0.488744 -6.568795  0.157213
   scf:    2     -900.539413     -900.558252     -900.626861  0.077796 -6.690306  0.243072
   scf:    3     -900.569907     -900.565845     -900.635066  0.044917 -6.632524  0.066171
   scf:    4     -900.566063     -900.566855     -900.636162  0.031290 -6.640591  0.022671
   scf:    5     -900.566879     -900.566956     -900.636270  0.009702 -6.639610  0.016432
   scf:    6     -900.566903     -900.566951     -900.636265  0.004986 -6.644582  0.013046
   scf:    7     -900.566970     -900.566968     -900.636282  0.006671 -6.643031  0.000744
   scf:    8     -900.566968     -900.566968     -900.636282  0.000280 -6.642915  0.000907

SCF Convergence by DM+H criterion
max |DM_out - DM_in|         :     0.0002795163
max |H_out - H_in|      (eV) :     0.0009067108
SCF cycle converged after 8 iterations

Using DM_out to compute the final energy and forces
No. of atoms with KB's overlaping orbs in proc 0. Max # of overlaps:       4      30

siesta: E_KS(eV) =             -900.5670

siesta: Atomic forces (eV/Ang):
----------------------------------------
   Tot   -0.000297   -0.000149    0.000590
----------------------------------------
   Max    1.987832
   Res    0.915698    sqrt( Sum f_i^2 / 3N )
----------------------------------------
   Max    1.987832    constrained

Stress tensor Voigt[x,y,z,yz,xz,xy] (kbar):      -19.04       -0.37       -0.08        0.02        0.48        0.15
(Free)E + p*V (eV/cell)     -896.5811
Target enthalpy (eV/cell)     -900.6363

siesta: Stress tensor (static) (eV/Ang**3):
        -0.001738    0.000017    0.000292
         0.000017    0.000036    0.000070
         0.000292    0.000070    0.000109

siesta: Pressure (static):          0.85073136  kBar

siesta: Stress tensor (total) (eV/Ang**3):
        -0.011881    0.000091    0.000297
         0.000091   -0.000233    0.000010
         0.000297    0.000010   -0.000051

siesta: Pressure (total):          6.49725972  kBar

siesta: Temp_ion =   13709.867 K

                     ====================================
                        Begin MD step =      7
                     ====================================

outcell: Unit cell vectors (Ang):
       10.000000    0.000000    0.000000
        0.000000   10.000000    0.000000
        0.000000    0.000000   10.000000

outcell: Cell vector modules (Ang)   :   10.000000   10.000000   10.000000
outcell: Cell angles (23,13,12) (deg):     90.0000     90.0000     90.0000
outcell: Cell volume (Ang**3)        :   1000.0000
Gamma-point calculation with multiply-connected orbital pairs
Folding of H and S implicitly performed
<dSpData1D:S at geom step 7
  <sparsity:sparsity for geom step 7
    nrows_g=36 nrows=36 sparsity=.9784 nnzs=1268, refcount: 7>
  <dData1D:(new from dSpData1D) n=1268, refcount: 1>
refcount: 1>
new_DM -- step:     7
Re-using DM from previous geometries...
Number of DMs in history: 1
 DM extrapolation coefficients: 
1   1.00000
New DM after history re-use:
<dSpData2D:SpM extrapolated using coords
  <sparsity:sparsity for geom step 7
    nrows_g=36 nrows=36 sparsity=.9784 nnzs=1268, refcount: 9>
  <dData2D:(temp array for extrapolation) n=1268 m=1, refcount: 1>
refcount: 1>
No. of atoms with KB's overlaping orbs in proc 0. Max # of overlaps:       4      34
New grid distribution:   1
           1       1:   45    1:   45    1:   45

InitMesh: MESH =    90 x    90 x    90 =      729000
InitMesh: (bp) =    45 x    45 x    45 =       91125
InitMesh: Mesh cutoff (required, used) =   200.000   223.865 Ry
ExtMesh (bp) on 0 =   117 x   117 x   117 =     1601613
PhiOnMesh: Number of (b)points on node 0 =                91125
PhiOnMesh: nlist on node 0 =               451256

        iscf     Eharris(eV)        E_KS(eV)     FreeEng(eV)     dDmax    Ef(eV) dHmax(eV)
   scf:    1     -900.594669     -900.575342     -900.644654  0.468308 -6.680647  0.073542
   scf:    2     -900.564493     -900.572008     -900.641028  0.055181 -6.622165  0.119542
   scf:    3     -900.576643     -900.575037     -900.644313  0.032043 -6.650057  0.032430
   scf:    4     -900.575379     -900.575476     -900.644790  0.019081 -6.646346  0.011420
   scf:    5     -900.575459     -900.575478     -900.644792  0.003650 -6.644321  0.007343
   scf:    6     -900.575474     -900.575476     -900.644790  0.000358 -6.644052  0.007339
   scf:    7     -900.575483     -900.575484     -900.644799  0.002844 -6.645397  0.000799
   scf:    8     -900.575484     -900.575484     -900.644799  0.000105 -6.645502  0.000975

SCF Convergence by DM+H criterion
max |DM_out - DM_in|         :     0.0001049473
max |H_out - H_in|      (eV) :     0.0009749178
SCF cycle converged after 8 iterations

Using DM_out to compute the final energy and forces
No. of atoms with KB's overlaping orbs in proc 0. Max # of overlaps:       4      34

siesta: E_KS(eV) =             -900.5755

siesta: Atomic forces (eV/Ang):
----------------------------------------
   Tot   -0.007765   -0.000019    0.000194
----------------------------------------
   Max    1.945735
   Res    0.888082    sqrt( Sum f_i^2 / 3N )
----------------------------------------
   Max    1.945735    constrained

Stress tensor Voigt[x,y,z,yz,xz,xy] (kbar):      -19.15       -0.35        0.01        0.08        0.57        0.10
(Free)E + p*V (eV/cell)     -896.5918
Target enthalpy (eV/cell)     -900.6448

siesta: Stress tensor (static) (eV/Ang**3):
        -0.001785   -0.000005    0.000308
        -0.000005    0.000044    0.000090
         0.000308    0.000090    0.000138

siesta: Pressure (static):          0.85627778  kBar

siesta: Stress tensor (total) (eV/Ang**3):
        -0.011950    0.000064    0.000357
         0.000064   -0.000216    0.000050
         0.000357    0.000050    0.000007

siesta: Pressure (total):          6.49372379  kBar

siesta: Temp_ion =   13733.181 K

                     ====================================
                        Begin MD step =      8
                     ====================================

outcell: Unit cell vectors (Ang):
       10.000000    0.000000    0.000000
        0.000000   10.000000    0.000000
        0.000000    0.000000   10.000000

outcell: Cell vector modules (Ang)   :   10.000000   10.000000   10.000000
outcell: Cell angles (23,13,12) (deg):     90.0000     90.0000     90.0000
outcell: Cell volume (Ang**3)        :   1000.0000
Gamma-point calculation with multiply-connected orbital pairs
Folding of H and S implicitly performed
<dSpData1D:S at geom step 8
  <sparsity:sparsity for geom step 8
    nrows_g=36 nrows=36 sparsity=.9784 nnzs=1268, refcount: 7>
  <dData1D:(new from dSpData1D) n=1268, refcount: 1>
refcount: 1>
new_DM -- step:     8
Re-using DM from previous geometries...
Number of DMs in history: 1
 DM extrapolation coefficients: 
1   1.00000
New DM after history re-use:
<dSpData2D:SpM extrapolated using coords
  <sparsity:sparsity for geom step 8
    nrows_g=36 nrows=36 sparsity=.9784 nnzs=1268, refcount: 9>
  <dData2D:(temp array for extrapolation) n=1268 m=1, refcount: 1>
refcount: 1>
No. of atoms with KB's overlaping orbs in proc 0. Max # of overlaps:       4      34
New grid distribution:   1
           1       1:   45    1:   45    1:   45

InitMesh: MESH =    90 x    90 x    90 =      729000
InitMesh: (bp) =    45 x    45 x    45 =       91125
InitMesh: Mesh cutoff (required, used) =   200.000   223.865 Ry
ExtMesh (bp) on 0 =   117 x   117 x   117 =     1601613
PhiOnMesh: Number of (b)points on node 0 =                91125
PhiOnMesh: nlist on node 0 =               451232

        iscf     Eharris(eV)        E_KS(eV)     FreeEng(eV)     dDmax    Ef(eV) dHmax(eV)
   scf:    1     -900.711831     -900.595761     -900.665073  0.402777 -6.795352  0.283327
   scf:    2     -900.580513     -900.591709     -900.660773  0.167295 -6.576702  0.373490
   scf:    3     -900.599027     -900.596389     -900.665670  0.078874 -6.678599  0.091064
   scf:    4     -900.595233     -900.596659     -900.665940  0.026101 -6.665639  0.031429
   scf:    5     -900.596912     -900.597028     -900.666342  0.014529 -6.667943  0.030427
   scf:    6     -900.596488     -900.596872     -900.666174  0.009764 -6.653656  0.047512
   scf:    7     -900.597049     -900.597044     -900.666359  0.013855 -6.663932  0.001581
   scf:    8     -900.597042     -900.597043     -900.666358  0.000559 -6.663696  0.002621
   scf:    9     -900.597044     -900.597044     -900.666359  0.000915 -6.663063  0.000447
   scf:   10     -900.597044     -900.597044     -900.666359  0.000112 -6.663003  0.000360

SCF Convergence by DM+H criterion
max |DM_out - DM_in|         :     0.0001123411
max |H_out - H_in|      (eV) :     0.0003600373
SCF cycle converged after 10 iterations

Using DM_out to compute the final energy and forces
No. of atoms with KB's overlaping orbs in proc 0. Max # of overlaps:       4      34

siesta: E_KS(eV) =             -900.5970

siesta: Atomic forces (eV/Ang):
----------------------------------------
   Tot    0.009382   -0.000137    0.000374
----------------------------------------
   Max    1.722899
   Res    0.735319    sqrt( Sum f_i^2 / 3N )
----------------------------------------
   Max    1.722899    constrained

Stress tensor Voigt[x,y,z,yz,xz,xy] (kbar):      -19.46       -0.36       -0.00        0.08        0.44       -0.05
(Free)E + p*V (eV/cell)     -896.5424
Target enthalpy (eV/cell)     -900.6664

siesta: Stress tensor (static) (eV/Ang**3):
        -0.001917   -0.000088    0.000190
        -0.000088    0.000023    0.000063
         0.000190    0.000063    0.000096

siesta: Pressure (static):          0.96040502  kBar

siesta: Stress tensor (total) (eV/Ang**3):
        -0.012146   -0.000030    0.000274
        -0.000030   -0.000226    0.000047
         0.000274    0.000047   -0.000000

siesta: Pressure (total):          6.60743750  kBar

siesta: Temp_ion =   13783.867 K

                     ====================================
                        Begin MD step =      9
                     ====================================

outcell: Unit cell vectors (Ang):
       10.000000    0.000000    0.000000
        0.000000   10.000000    0.000000
        0.000000    0.000000   10.000000

outcell: Cell vector modules (Ang)   :   10.000000   10.000000   10.000000
outcell: Cell angles (23,13,12) (deg):     90.0000     90.0000     90.0000
outcell: Cell volume (Ang**3)        :   1000.0000
Gamma-point calculation with multiply-connected orbital pairs
Folding of H and S implicitly performed
<dSpData1D:S at geom step 9
  <sparsity:sparsity for geom step 9
    nrows_g=36 nrows=36 sparsity=.9830 nnzs=1274, refcount: 7>
  <dData1D:(new from dSpData1D) n=1274, refcount: 1>
refcount: 1>
new_DM -- step:     9
Re-using DM from previous geometries...
Number of DMs in history: 1
 DM extrapolation coefficients: 
1   1.00000
New DM after history re-use:
<dSpData2D:SpM extrapolated using coords
  <sparsity:sparsity for geom step 9
    nrows_g=36 nrows=36 sparsity=.9830 nnzs=1274, refcount: 9>
  <dData2D:(temp array for extrapolation) n=1274 m=1, refcount: 1>
refcount: 1>
Note: For starting DM, Qtot, Tr[D*S] =         14.00000000         14.01485882
No. of atoms with KB's overlaping orbs in proc 0. Max # of overlaps:       4      34
New grid distribution:   1
           1       1:   45    1:   45    1:   45

InitMesh: MESH =    90 x    90 x    90 =      729000
InitMesh: (bp) =    45 x    45 x    45 =       91125
InitMesh: Mesh cutoff (required, used) =   200.000   223.865 Ry
ExtMesh (bp) on 0 =   117 x   117 x   117 =     1601613
PhiOnMesh: Number of (b)points on node 0 =                91125
PhiOnMesh: nlist on node 0 =               451252

        iscf     Eharris(eV)        E_KS(eV)     FreeEng(eV)     dDmax    Ef(eV) dHmax(eV)
   scf:    1     -900.761520     -900.603176     -900.672489  0.124908 -6.858220  0.360973
   scf:    2     -900.580449     -900.597241     -900.666284  0.202281 -6.586609  0.516840
   scf:    3     -900.608309     -900.604373     -900.673653  0.099816 -6.718956  0.135051
   scf:    4     -900.603004     -900.604752     -900.674024  0.038832 -6.697438  0.033667
   scf:    5     -900.605195     -900.605253     -900.674567  0.021657 -6.702003  0.034074
   scf:    6     -900.604775     -900.605104     -900.674410  0.010969 -6.684496  0.059322
   scf:    7     -900.605279     -900.605270     -900.674585  0.017926 -6.697141  0.003516
   scf:    8     -900.605268     -900.605269     -900.674583  0.000536 -6.696536  0.004040
   scf:    9     -900.605270     -900.605271     -900.674585  0.001915 -6.695444  0.000316
   scf:   10     -900.605271     -900.605271     -900.674585  0.000067 -6.695426  0.000314

SCF Convergence by DM+H criterion
max |DM_out - DM_in|         :     0.0000674201
max |H_out - H_in|      (eV) :     0.0003142844
SCF cycle converged after 10 iterations

Using DM_out to compute the final energy and forces
No. of atoms with KB's overlaping orbs in proc 0. Max # of overlaps:       4      34

siesta: E_KS(eV) =             -900.6053

siesta: Atomic forces (eV/Ang):
----------------------------------------
   Tot   -0.038893   -0.000271   -0.000030
----------------------------------------
   Max    1.367476
   Res    0.554509    sqrt( Sum f_i^2 / 3N )
----------------------------------------
   Max    1.367476    constrained

Stress tensor Voigt[x,y,z,yz,xz,xy] (kbar):      -19.50       -0.43       -0.15       -0.02        0.14       -0.27
(Free)E + p*V (eV/cell)     -896.4971
Target enthalpy (eV/cell)     -900.6746

siesta: Stress tensor (static) (eV/Ang**3):
        -0.001869   -0.000202   -0.000012
        -0.000202   -0.000029   -0.000015
        -0.000012   -0.000015   -0.000022

siesta: Pressure (static):          1.02531936  kBar

siesta: Stress tensor (total) (eV/Ang**3):
        -0.012168   -0.000167    0.000087
        -0.000167   -0.000271   -0.000012
         0.000087   -0.000012   -0.000094

siesta: Pressure (total):          6.69319381  kBar

siesta: Temp_ion =   13810.980 K

                     ====================================
                        Begin MD step =     10
                     ====================================

outcell: Unit cell vectors (Ang):
       10.000000    0.000000    0.000000
        0.000000   10.000000    0.000000
        0.000000    0.000000   10.000000

outcell: Cell vector modules (Ang)   :   10.000000   10.000000   10.000000
outcell: Cell angles (23,13,12) (deg):     90.0000     90.0000     90.0000
outcell: Cell volume (Ang**3)        :   1000.0000
Gamma-point calculation with multiply-connected orbital pairs
Folding of H and S implicitly performed
<dSpData1D:S at geom step 10
  <sparsity:sparsity for geom step 10
    nrows_g=36 nrows=36 sparsity=.9877 nnzs=1280, refcount: 7>
  <dData1D:(new from dSpData1D) n=1280, refcount: 1>
refcount: 1>
new_DM -- step:    10
Re-using DM from previous geometries...
Number of DMs in history: 1
 DM extrapolation coefficients: 
1   1.00000
New DM after history re-use:
<dSpData2D:SpM extrapolated using coords
  <sparsity:sparsity for geom step 10
    nrows_g=36 nrows=36 sparsity=.9877 nnzs=1280, refcount: 9>
  <dData2D:(temp array for extrapolation) n=1280 m=1, refcount: 1>
refcount: 1>
No. of atoms with KB's overlaping orbs in proc 0. Max # of overlaps:       4      34
New grid distribution:   1
           1       1:   45    1:   45    1:   45

InitMesh: MESH =    90 x    90 x    90 =      729000
InitMesh: (bp) =    45 x    45 x    45 =       91125
InitMesh: Mesh cutoff (required, used) =   200.000   223.865 Ry
ExtMesh (bp) on 0 =   117 x   117 x   117 =     1601613
PhiOnMesh: Number of (b)points on node 0 =                91125
PhiOnMesh: nlist on node 0 =               451327

        iscf     Eharris(eV)        E_KS(eV)     FreeEng(eV)     dDmax    Ef(eV) dHmax(eV)
   scf:    1     -900.721056     -900.588518     -900.657819  0.737521 -6.833540  0.218311
   scf:    2     -900.541407     -900.574275     -900.642433  0.104019 -6.671877  0.322000
   scf:    3     -900.594754     -900.587713     -900.656894  0.062135 -6.751602  0.082834
   scf:    4     -900.587144     -900.589212     -900.658490  0.048423 -6.741628  0.025458
   scf:    5     -900.587876     -900.589219     -900.658510  0.029886 -6.734434  0.026297
   scf:    6     -900.589649     -900.589476     -900.658786  0.007424 -6.736866  0.014617
   scf:    7     -900.589579     -900.589572     -900.658886  0.009878 -6.739431  0.001228
   scf:    8     -900.589571     -900.589572     -900.658886  0.000497 -6.739458  0.001215
   scf:    9     -900.589571     -900.589572     -900.658886  0.000888 -6.739074  0.000785
   scf:   10     -900.589572     -900.589572     -900.658886  0.000127 -6.739012  0.000687

SCF Convergence by DM+H criterion
max |DM_out - DM_in|         :     0.0001265009
max |H_out - H_in|      (eV) :     0.0006869719
SCF cycle converged after 10 iterations

Using DM_out to compute the final energy and forces
No. of atoms with KB's overlaping orbs in proc 0. Max # of overlaps:       4      34

siesta: E_KS(eV) =             -900.5896

siesta: Atomic forces (eV/Ang):
----------------------------------------
   Tot   -0.000362   -0.000323   -0.000181
----------------------------------------
   Max    0.945314
   Res    0.432408    sqrt( Sum f_i^2 / 3N )
----------------------------------------
   Max    0.945314    constrained

Stress tensor Voigt[x,y,z,yz,xz,xy] (kbar):      -19.40       -0.51       -0.33       -0.14       -0.06       -0.36
(Free)E + p*V (eV/cell)     -896.4486
Target enthalpy (eV/cell)     -900.6589

siesta: Stress tensor (static) (eV/Ang**3):
        -0.001782   -0.000238   -0.000143
        -0.000238   -0.000077   -0.000092
        -0.000143   -0.000092   -0.000139

siesta: Pressure (static):          1.06670063  kBar

siesta: Stress tensor (total) (eV/Ang**3):
        -0.012106   -0.000227   -0.000038
        -0.000227   -0.000321   -0.000084
        -0.000037   -0.000084   -0.000204

siesta: Pressure (total):          6.74572375  kBar

siesta: Temp_ion =   13783.299 K

                     ====================================
                        Begin MD step =     11
                     ====================================

outcell: Unit cell vectors (Ang):
       10.000000    0.000000    0.000000
        0.000000   10.000000    0.000000
        0.000000    0.000000   10.000000

outcell: Cell vector modules (Ang)   :   10.000000   10.000000   10.000000
outcell: Cell angles (23,13,12) (deg):     90.0000     90.0000     90.0000
outcell: Cell volume (Ang**3)        :   1000.0000
Gamma-point calculation with multiply-connected orbital pairs
Folding of H and S implicitly performed
<dSpData1D:S at geom step 11
  <sparsity:sparsity for geom step 11
    nrows_g=36 nrows=36 sparsity=.9877 nnzs=1280, refcount: 7>
  <dData1D:(new from dSpData1D) n=1280, refcount: 1>
refcount: 1>
new_DM -- step:    11
Re-using DM from previous geometries...
Number of DMs in history: 1
 DM extrapolation coefficients: 
1   1.00000
New DM after history re-use:
<dSpData2D:SpM extrapolated using coords
  <sparsity:sparsity for geom step 11
    nrows_g=36 nrows=36 sparsity=.9877 nnzs=1280, refcount: 9>
  <dData2D:(temp array for extrapolation) n=1280 m=1, refcount: 1>
refcount: 1>
No. of atoms with KB's overlaping orbs in proc 0. Max # of overlaps:       4      34
New grid distribution:   1
           1       1:   45    1:   45    1:   45

InitMesh: MESH =    90 x    90 x    90 =      729000
InitMesh: (bp) =    45 x    45 x    45 =       91125
InitMesh: Mesh cutoff (required, used) =   200.000   223.865 Ry
ExtMesh (bp) on 0 =   117 x   117 x   117 =     1601613
PhiOnMesh: Number of (b)points on node 0 =                91125
PhiOnMesh: nlist on node 0 =               451257

        iscf     Eharris(eV)        E_KS(eV)     FreeEng(eV)     dDmax    Ef(eV) dHmax(eV)
   scf:    1     -900.605903     -900.553863     -900.623118  1.001302 -6.755532  0.101406
   scf:    2     -900.363201     -900.494392     -900.558643  0.185681 -6.807305  0.360899
   scf:    3     -900.566541     -900.553750     -900.623008  0.149329 -6.767654  0.066047
   scf:    4     -900.550402     -900.553872     -900.623083  0.041270 -6.784118  0.045769
   scf:    5     -900.555062     -900.554670     -900.623967  0.013491 -6.781990  0.033972
   scf:    6     -900.554738     -900.554720     -900.624016  0.020158 -6.791274  0.014983
   scf:    7     -900.554515     -900.554625     -900.623911  0.002920 -6.790216  0.015608
   scf:    8     -900.554764     -900.554818     -900.624132  0.010425 -6.787147  0.002250
   scf:    9     -900.554822     -900.554822     -900.624135  0.001545 -6.787456  0.001170
   scf:   10     -900.554822     -900.554822     -900.624135  0.000435 -6.787786  0.001502
   scf:   11     -900.554822     -900.554822     -900.624135  0.000087 -6.787867  0.001032
   scf:   12     -900.554822     -900.554822     -900.624135  0.000162 -6.787886  0.000841

SCF Convergence by DM+H criterion
max |DM_out - DM_in|         :     0.0001617451
max |H_out - H_in|      (eV) :     0.0008413783
SCF cycle converged after 12 iterations

Using DM_out to compute the final energy and forces
No. of atoms with KB's overlaping orbs in proc 0. Max # of overlaps:       4      34

siesta: E_KS(eV) =             -900.5548

siesta: Atomic forces (eV/Ang):
----------------------------------------
   Tot   -0.004690   -0.000554    0.000031
----------------------------------------
   Max    0.497157
   Res    0.231675    sqrt( Sum f_i^2 / 3N )
----------------------------------------
   Max    0.497157    constrained

Stress tensor Voigt[x,y,z,yz,xz,xy] (kbar):      -18.80       -0.51       -0.31       -0.13        0.03       -0.22
(Free)E + p*V (eV/cell)     -896.5422
Target enthalpy (eV/cell)     -900.6241

siesta: Stress tensor (static) (eV/Ang**3):
        -0.001457   -0.000128   -0.000095
        -0.000128   -0.000063   -0.000078
        -0.000095   -0.000078   -0.000113

siesta: Pressure (static):          0.87240000  kBar

siesta: Stress tensor (total) (eV/Ang**3):
        -0.011736   -0.000135    0.000016
        -0.000135   -0.000317   -0.000080
         0.000016   -0.000080   -0.000193

siesta: Pressure (total):          6.54004081  kBar

siesta: Temp_ion =   13686.010 K

                     ====================================
                        Begin MD step =     12
                     ====================================

outcell: Unit cell vectors (Ang):
       10.000000    0.000000    0.000000
        0.000000   10.000000    0.000000
        0.000000    0.000000   10.000000

outcell: Cell vector modules (Ang)   :   10.000000   10.000000   10.000000
outcell: Cell angles (23,13,12) (deg):     90.0000     90.0000     90.0000
outcell: Cell volume (Ang**3)        :   1000.0000
Gamma-point calculation with multiply-connected orbital pairs
Folding of H and S implicitly performed
<dSpData1D:S at geom step 12
  <sparsity:sparsity for geom step 12
    nrows_g=36 nrows=36 sparsity=.9954 nnzs=1290, refcount: 7>
  <dData1D:(new from dSpData1D) n=1290, refcount: 1>
refcount: 1>
new_DM -- step:    12
Re-using DM from previous geometries...
Number of DMs in history: 1
 DM extrapolation coefficients: 
1   1.00000
New DM after history re-use:
<dSpData2D:SpM extrapolated using coords
  <sparsity:sparsity for geom step 12
    nrows_g=36 nrows=36 sparsity=.9954 nnzs=1290, refcount: 9>
  <dData2D:(temp array for extrapolation) n=1290 m=1, refcount: 1>
refcount: 1>
Note: For starting DM, Qtot, Tr[D*S] =         14.00000000         13.97301412
No. of atoms with KB's overlaping orbs in proc 0. Max # of overlaps:       4      35
New grid distribution:   1
           1       1:   45    1:   45    1:   45

InitMesh: MESH =    90 x    90 x    90 =      729000
InitMesh: (bp) =    45 x    45 x    45 =       91125
InitMesh: Mesh cutoff (required, used) =   200.000   223.865 Ry
ExtMesh (bp) on 0 =   117 x   117 x   117 =     1601613
PhiOnMesh: Number of (b)points on node 0 =                91125
PhiOnMesh: nlist on node 0 =               451160

        iscf     Eharris(eV)        E_KS(eV)     FreeEng(eV)     dDmax    Ef(eV) dHmax(eV)
   scf:    1     -900.379861     -900.450675     -900.519681  1.203720 -6.700571  0.458344
   scf:    2     -899.553458     -900.172925     -900.221731  0.381563 -6.937337  1.425933
   scf:    3     -900.521098     -900.451409     -900.520429  0.298685 -6.756589  0.243795
   scf:    4     -900.239314     -900.395548     -900.458830  0.225251 -6.851778  0.190264
   scf:    5     -900.390429     -900.393004     -900.456047  0.012806 -6.863039  0.215212
   scf:    6     -900.478061     -900.451836     -900.520540  0.128159 -6.844345  0.062895
   scf:    7     -900.434872     -900.452815     -900.521869  0.097941 -6.852360  0.067013
   scf:    8     -900.458175     -900.456977     -900.526291  0.037606 -6.835558  0.011127
   scf:    9     -900.457122     -900.457098     -900.526405  0.007346 -6.838433  0.002674
   scf:   10     -900.457086     -900.457097     -900.526398  0.002645 -6.837807  0.003295
   scf:   11     -900.457095     -900.457101     -900.526406  0.001952 -6.838480  0.002179
   scf:   12     -900.457101     -900.457101     -900.526407  0.000304 -6.838783  0.001073
   scf:   13     -900.457101     -900.457101     -900.526407  0.000197 -6.838721  0.000841

SCF Convergence by DM+H criterion
max |DM_out - DM_in|         :     0.0001966265
max |H_out - H_in|      (eV) :     0.0008411298
SCF cycle converged after 13 iterations

Using DM_out to compute the final energy and forces
No. of atoms with KB's overlaping orbs in proc 0. Max # of overlaps:       4      35

siesta: E_KS(eV) =             -900.4571

siesta: Atomic forces (eV/Ang):
----------------------------------------
   Tot    0.000971   -0.000663   -0.000550
----------------------------------------
   Max    0.577676
   Res    0.249154    sqrt( Sum f_i^2 / 3N )
----------------------------------------
   Max    0.577676    constrained

Stress tensor Voigt[x,y,z,yz,xz,xy] (kbar):      -18.87       -0.39       -0.03        0.05        0.32        0.12
(Free)E + p*V (eV/cell)     -896.5135
Target enthalpy (eV/cell)     -900.5264

siesta: Stress tensor (static) (eV/Ang**3):
        -0.001611    0.000094    0.000086
         0.000094    0.000023    0.000048
         0.000086    0.000048    0.000086

siesta: Pressure (static):          0.80186987  kBar

siesta: Stress tensor (total) (eV/Ang**3):
        -0.011778    0.000075    0.000198
         0.000075   -0.000244    0.000031
         0.000198    0.000031   -0.000017

siesta: Pressure (total):          6.42950598  kBar

siesta: Temp_ion =   13418.371 K

                     ====================================
                        Begin MD step =     13
                     ====================================

outcell: Unit cell vectors (Ang):
       10.000000    0.000000    0.000000
        0.000000   10.000000    0.000000
        0.000000    0.000000   10.000000

outcell: Cell vector modules (Ang)   :   10.000000   10.000000   10.000000
outcell: Cell angles (23,13,12) (deg):     90.0000     90.0000     90.0000
outcell: Cell volume (Ang**3)        :   1000.0000
Gamma-point calculation with multiply-connected orbital pairs
Folding of H and S implicitly performed
<dSpData1D:S at geom step 13
  <sparsity:sparsity for geom step 13
    nrows_g=36 nrows=36 sparsity=.9954 nnzs=1290, refcount: 7>
  <dData1D:(new from dSpData1D) n=1290, refcount: 1>
refcount: 1>
new_DM -- step:    13
Re-using DM from previous geometries...
Number of DMs in history: 1
 DM extrapolation coefficients: 
1   1.00000
New DM after history re-use:
<dSpData2D:SpM extrapolated using coords
  <sparsity:sparsity for geom step 13
    nrows_g=36 nrows=36 sparsity=.9954 nnzs=1290, refcount: 9>
  <dData2D:(temp array for extrapolation) n=1290 m=1, refcount: 1>
refcount: 1>
Note: For starting DM, Qtot, Tr[D*S] =         14.00000000         13.95961334
No. of atoms with KB's overlaping orbs in proc 0. Max # of overlaps:       4      35
New grid distribution:   1
           1       1:   45    1:   45    1:   45

InitMesh: MESH =    90 x    90 x    90 =      729000
InitMesh: (bp) =    45 x    45 x    45 =       91125
InitMesh: Mesh cutoff (required, used) =   200.000   223.865 Ry
ExtMesh (bp) on 0 =   117 x   117 x   117 =     1601613
PhiOnMesh: Number of (b)points on node 0 =                91125
PhiOnMesh: nlist on node 0 =               451139

        iscf     Eharris(eV)        E_KS(eV)     FreeEng(eV)     dDmax    Ef(eV) dHmax(eV)
   scf:    1     -899.942025     -900.198055     -900.265562  1.376411 -6.705102  0.740735
   scf:    2     -897.852873     -899.492337     -899.506572  0.593850 -7.016862  2.549167
   scf:    3     -900.411905     -900.198916     -900.266905  0.417645 -6.772486  0.348791
   scf:    4     -900.192486     -900.195753     -900.263510  0.006928 -6.771456  0.358280
   scf:    5     -899.347593     -899.980845     -900.023817  0.438450 -6.905072  0.416243
   scf:    6     -900.157379     -900.074796     -900.128227  0.072086 -6.882627  0.289132
   scf:    7     -899.244560     -900.012716     -900.064318  0.567008 -6.890244  0.337604
   scf:    8     -899.763538     -899.894550     -899.934051  0.077558 -6.886128  0.420617
   scf:    9     -900.327704     -900.169171     -900.234705  0.230377 -6.892432  0.181751
   scf:   10     -899.467512     -899.879891     -899.917752  0.239902 -6.874954  0.401139
   scf:   11     -900.308265     -900.213222     -900.282092  0.329096 -6.878857  0.065521
   scf:   12     -900.162568     -900.209859     -900.277446  0.141108 -6.880621  0.080475
   scf:   13     -900.222871     -900.222593     -900.291841  0.074993 -6.879793  0.003723
   scf:   14     -900.221482     -900.222240     -900.291550  0.013067 -6.879835  0.011933
   scf:   15     -900.222585     -900.222595     -900.291848  0.012994 -6.879843  0.002555
   scf:   16     -900.222594     -900.222595     -900.291845  0.000316 -6.879973  0.002524
   scf:   17     -900.222588     -900.222594     -900.291854  0.001420 -6.879889  0.002215
   scf:   18     -900.222590     -900.222592     -900.291854  0.000378 -6.880206  0.002264
   scf:   19     -900.222590     -900.222591     -900.291854  0.000120 -6.880368  0.001819
   scf:   20     -900.222591     -900.222591     -900.291855  0.000176 -6.880393  0.001393
   scf:   21     -900.222591     -900.222591     -900.291854  0.000205 -6.880456  0.001014
   scf:   22     -900.222591     -900.222591     -900.291855  0.000134 -6.880593  0.000886

SCF Convergence by DM+H criterion
max |DM_out - DM_in|         :     0.0001335322
max |H_out - H_in|      (eV) :     0.0008862183
SCF cycle converged after 22 iterations

Using DM_out to compute the final energy and forces
No. of atoms with KB's overlaping orbs in proc 0. Max # of overlaps:       4      35

siesta: E_KS(eV) =             -900.2226

siesta: Atomic forces (eV/Ang):
----------------------------------------
   Tot    0.037778    0.000573    0.000731
----------------------------------------
   Max    1.544145
   Res    0.643746    sqrt( Sum f_i^2 / 3N )
----------------------------------------
   Max    1.544145    constrained

Stress tensor Voigt[x,y,z,yz,xz,xy] (kbar):      -20.33       -0.26        0.34        0.28        0.54        0.46
(Free)E + p*V (eV/cell)     -896.0778
Target enthalpy (eV/cell)     -900.2919

siesta: Stress tensor (static) (eV/Ang**3):
        -0.002739    0.000312    0.000229
         0.000312    0.000111    0.000196
         0.000229    0.000196    0.000317

siesta: Pressure (static):          1.23416086  kBar

siesta: Stress tensor (total) (eV/Ang**3):
        -0.012691    0.000285    0.000339
         0.000286   -0.000161    0.000176
         0.000339    0.000176    0.000210

siesta: Pressure (total):          6.75174491  kBar

siesta: Temp_ion =   12787.013 K

                     ====================================
                        Begin MD step =     14
                     ====================================

outcell: Unit cell vectors (Ang):
       10.000000    0.000000    0.000000
        0.000000   10.000000    0.000000
        0.000000    0.000000   10.000000

outcell: Cell vector modules (Ang)   :   10.000000   10.000000   10.000000
outcell: Cell angles (23,13,12) (deg):     90.0000     90.0000     90.0000
outcell: Cell volume (Ang**3)        :   1000.0000
<dSpData1D:S at geom step 14
  <sparsity:sparsity for geom step 14
    nrows_g=36 nrows=36 sparsity=1.0000 nnzs=1296, refcount: 7>
  <dData1D:(new from dSpData1D) n=1296, refcount: 1>
refcount: 1>
new_DM -- step:    14
Re-using DM from previous geometries...
Number of DMs in history: 1
 DM extrapolation coefficients: 
1   1.00000
New DM after history re-use:
<dSpData2D:SpM extrapolated using coords
  <sparsity:sparsity for geom step 14
    nrows_g=36 nrows=36 sparsity=1.0000 nnzs=1296, refcount: 9>
  <dData2D:(temp array for extrapolation) n=1296 m=1, refcount: 1>
refcount: 1>
Note: For starting DM, Qtot, Tr[D*S] =         14.00000000         13.94780713
No. of atoms with KB's overlaping orbs in proc 0. Max # of overlaps:       4      36
New grid distribution:   1
           1       1:   45    1:   45    1:   45

InitMesh: MESH =    90 x    90 x    90 =      729000
InitMesh: (bp) =    45 x    45 x    45 =       91125
InitMesh: Mesh cutoff (required, used) =   200.000   223.865 Ry
ExtMesh (bp) on 0 =   117 x   117 x   117 =     1601613
PhiOnMesh: Number of (b)points on node 0 =                91125
PhiOnMesh: nlist on node 0 =               451074

        iscf     Eharris(eV)        E_KS(eV)     FreeEng(eV)     dDmax    Ef(eV) dHmax(eV)
   scf:    1     -899.100403     -899.704208     -899.764607  1.021093 -6.739920  0.930154
[...]
           1       1:   45    1:   45    1:   45

InitMesh: MESH =    90 x    90 x    90 =      729000
InitMesh: (bp) =    45 x    45 x    45 =       91125
InitMesh: Mesh cutoff (required, used) =   200.000   223.865 Ry
ExtMesh (bp) on 0 =   117 x   117 x   117 =     1601613
PhiOnMesh: Number of (b)points on node 0 =                91125
PhiOnMesh: nlist on node 0 =               450460

        iscf     Eharris(eV)        E_KS(eV)     FreeEng(eV)     dDmax    Ef(eV) dHmax(eV)
   scf:    1     -896.880199     -897.224511     -897.243839  0.268392 -6.244396  1.962947
   scf:    2     -892.649483     -895.922093     -895.949772  0.459798 -7.588286  6.947269
   scf:    3     -897.827576     -897.395722     -897.421582  0.331237 -6.574451  0.526608
   scf:    4     -897.373710     -897.394200     -897.422036  0.059217 -6.474802  0.634760
   scf:    5     -897.398819     -897.402086     -897.434616  0.041413 -6.569326  0.235353
   scf:    6     -896.715968     -897.178989     -897.190226  0.084288 -6.608220  2.108044
   scf:    7     -897.479012     -897.395677     -897.423196  0.084422 -6.534910  0.572393
   scf:    8     -897.366030     -897.396892     -897.434214  0.047924 -6.539348  0.294136
   scf:    9     -897.403734     -897.404417     -897.437841  0.073044 -6.529784  0.041519
   scf:   10     -897.406100     -897.405874     -897.439464  0.027009 -6.528361  0.035805
   scf:   11     -897.407114     -897.406841     -897.438773  0.011910 -6.530259  0.128576
   scf:   12     -897.406682     -897.407155     -897.439578  0.007046 -6.533488  0.015368
   scf:   13     -897.407517     -897.407359     -897.439572  0.004078 -6.533949  0.010723
   scf:   14     -897.406967     -897.407169     -897.439599  0.002415 -6.533954  0.004461
   scf:   15     -897.405639     -897.406424     -897.439618  0.004465 -6.533958  0.010491
   scf:   16     -897.406929     -897.406681     -897.439627  0.001814 -6.533966  0.004756
   scf:   17     -897.406679     -897.406680     -897.439626  0.000270 -6.534121  0.004864
   scf:   18     -897.406736     -897.406708     -897.439626  0.000216 -6.534370  0.004676
   scf:   19     -897.406545     -897.406627     -897.439628  0.000902 -6.534737  0.001618
   scf:   20     -897.406682     -897.406654     -897.439628  0.000189 -6.534761  0.001119
   scf:   21     -897.406646     -897.406650     -897.439628  0.000339 -6.535292  0.000400
   scf:   22     -897.406640     -897.406645     -897.439628  0.000031 -6.535295  0.000473

SCF Convergence by DM+H criterion
max |DM_out - DM_in|         :     0.0000311960
max |H_out - H_in|      (eV) :     0.0004726085
SCF cycle converged after 22 iterations

Using DM_out to compute the final energy and forces
No. of atoms with KB's overlaping orbs in proc 0. Max # of overlaps:       4      36

siesta: E_KS(eV) =             -897.4066

siesta: Atomic forces (eV/Ang):
----------------------------------------
   Tot   -0.001640   -0.004086    0.001490
----------------------------------------
   Max    4.317729
   Res    2.161372    sqrt( Sum f_i^2 / 3N )
----------------------------------------
   Max    4.317729    constrained

Stress tensor Voigt[x,y,z,yz,xz,xy] (kbar):        4.62        1.59        9.77       -3.18        2.82        1.57
(Free)E + p*V (eV/cell)     -900.7634
Target enthalpy (eV/cell)     -897.4396

siesta: Stress tensor (static) (eV/Ang**3):
         0.005013    0.001417    0.002776
         0.001417    0.001546   -0.002076
         0.002776   -0.002076    0.009025

siesta: Pressure (static):         -8.32268906  kBar

siesta: Stress tensor (total) (eV/Ang**3):
         0.002881    0.000982    0.001763
         0.000982    0.000994   -0.001985
         0.001763   -0.001985    0.006096

siesta: Pressure (total):         -5.32531997  kBar

siesta: Temp_ion =    5853.325 K

                     ====================================
                        Begin MD step =     99
                     ====================================

outcell: Unit cell vectors (Ang):
       10.000000    0.000000    0.000000
        0.000000   10.000000    0.000000
        0.000000    0.000000   10.000000

outcell: Cell vector modules (Ang)   :   10.000000   10.000000   10.000000
outcell: Cell angles (23,13,12) (deg):     90.0000     90.0000     90.0000
outcell: Cell volume (Ang**3)        :   1000.0000
<dSpData1D:S at geom step 99
  <sparsity:sparsity for geom step 99
    nrows_g=36 nrows=36 sparsity=1.0000 nnzs=1296, refcount: 7>
  <dData1D:(new from dSpData1D) n=1296, refcount: 1>
refcount: 1>
new_DM -- step:    99
Re-using DM from previous geometries...
Number of DMs in history: 1
 DM extrapolation coefficients: 
1   1.00000
New DM after history re-use:
<dSpData2D:SpM extrapolated using coords
  <sparsity:sparsity for geom step 99
    nrows_g=36 nrows=36 sparsity=1.0000 nnzs=1296, refcount: 9>
  <dData2D:(temp array for extrapolation) n=1296 m=1, refcount: 1>
refcount: 1>
Note: For starting DM, Qtot, Tr[D*S] =         14.00000000         13.97695807
No. of atoms with KB's overlaping orbs in proc 0. Max # of overlaps:       4      36
New grid distribution:   1
           1       1:   45    1:   45    1:   45

InitMesh: MESH =    90 x    90 x    90 =      729000
InitMesh: (bp) =    45 x    45 x    45 =       91125
InitMesh: Mesh cutoff (required, used) =   200.000   223.865 Ry
ExtMesh (bp) on 0 =   117 x   117 x   117 =     1601613
PhiOnMesh: Number of (b)points on node 0 =                91125
PhiOnMesh: nlist on node 0 =               450595

        iscf     Eharris(eV)        E_KS(eV)     FreeEng(eV)     dDmax    Ef(eV) dHmax(eV)
   scf:    1     -896.606420     -897.089304     -897.106449  0.417642 -6.364568  1.860125
   scf:    2     -890.627002     -895.148946     -895.158427  0.480089 -7.498017  8.287754
   scf:    3     -897.728791     -897.227411     -897.244456  0.311027 -6.582197  0.510131
   scf:    4     -897.184293     -897.219332     -897.239721  0.064294 -6.493119  0.767896
   scf:    5     -897.201884     -897.228983     -897.254938  0.082753 -6.623665  0.426226
   scf:    6     -897.125943     -897.194781     -897.214019  0.030425 -6.648910  1.214912
   scf:    7     -897.226235     -897.233908     -897.264120  0.065972 -6.542776  0.044153
   scf:    8     -897.232827     -897.233401     -897.263944  0.001640 -6.541431  0.066712
   scf:    9     -897.231089     -897.232318     -897.263399  0.002680 -6.539775  0.117740
   scf:   10     -897.222229     -897.227681     -897.260848  0.012877 -6.544786  0.209135
   scf:   11     -897.227067     -897.227376     -897.260660  0.000618 -6.543928  0.212010
   scf:   12     -897.241169     -897.235453     -897.264476  0.020853 -6.544966  0.043134
   scf:   13     -897.237696     -897.236616     -897.264665  0.004742 -6.545342  0.011810
   scf:   14     -897.238894     -897.237839     -897.264796  0.012429 -6.546186  0.017173
   scf:   15     -897.236928     -897.237393     -897.264816  0.002420 -6.546293  0.008294
   scf:   16     -897.237712     -897.237560     -897.264818  0.002978 -6.546430  0.002524
   scf:   17     -897.237298     -897.237433     -897.264823  0.002257 -6.546666  0.004036
   scf:   18     -897.237590     -897.237512     -897.264824  0.000331 -6.546693  0.001830
   scf:   19     -897.237421     -897.237467     -897.264825  0.000544 -6.547514  0.001597
   scf:   20     -897.237524     -897.237495     -897.264825  0.000138 -6.547550  0.000606

SCF Convergence by DM+H criterion
max |DM_out - DM_in|         :     0.0001380181
max |H_out - H_in|      (eV) :     0.0006058264
SCF cycle converged after 20 iterations

Using DM_out to compute the final energy and forces
No. of atoms with KB's overlaping orbs in proc 0. Max # of overlaps:       4      36

siesta: E_KS(eV) =             -897.2375

siesta: Atomic forces (eV/Ang):
----------------------------------------
   Tot    0.001469   -0.002933    0.005016
----------------------------------------
   Max    3.966839
   Res    2.052282    sqrt( Sum f_i^2 / 3N )
----------------------------------------
   Max    3.966839    constrained

Stress tensor Voigt[x,y,z,yz,xz,xy] (kbar):        3.76        1.33       10.69       -2.56        2.77        1.81
(Free)E + p*V (eV/cell)     -900.5478
Target enthalpy (eV/cell)     -897.2648

siesta: Stress tensor (static) (eV/Ang**3):
         0.004214    0.001527    0.002058
         0.001527    0.001519   -0.001954
         0.002058   -0.001954    0.008623

siesta: Pressure (static):         -7.66688441  kBar

siesta: Stress tensor (total) (eV/Ang**3):
         0.002346    0.001128    0.001729
         0.001128    0.000830   -0.001599
         0.001729   -0.001599    0.006673

siesta: Pressure (total):         -5.26001917  kBar

siesta: Temp_ion =    5380.022 K

                     ====================================
                        Begin MD step =    100
                     ====================================

outcell: Unit cell vectors (Ang):
       10.000000    0.000000    0.000000
        0.000000   10.000000    0.000000
        0.000000    0.000000   10.000000

outcell: Cell vector modules (Ang)   :   10.000000   10.000000   10.000000
outcell: Cell angles (23,13,12) (deg):     90.0000     90.0000     90.0000
outcell: Cell volume (Ang**3)        :   1000.0000
<dSpData1D:S at geom step 100
  <sparsity:sparsity for geom step 100
    nrows_g=36 nrows=36 sparsity=1.0000 nnzs=1296, refcount: 7>
  <dData1D:(new from dSpData1D) n=1296, refcount: 1>
refcount: 1>
new_DM -- step:   100
Re-using DM from previous geometries...
Number of DMs in history: 1
 DM extrapolation coefficients: 
1   1.00000
New DM after history re-use:
<dSpData2D:SpM extrapolated using coords
  <sparsity:sparsity for geom step 100
    nrows_g=36 nrows=36 sparsity=1.0000 nnzs=1296, refcount: 9>
  <dData2D:(temp array for extrapolation) n=1296 m=1, refcount: 1>
refcount: 1>
No. of atoms with KB's overlaping orbs in proc 0. Max # of overlaps:       4      36
New grid distribution:   1
           1       1:   45    1:   45    1:   45

InitMesh: MESH =    90 x    90 x    90 =      729000
InitMesh: (bp) =    45 x    45 x    45 =       91125
InitMesh: Mesh cutoff (required, used) =   200.000   223.865 Ry
ExtMesh (bp) on 0 =   117 x   117 x   117 =     1601613
PhiOnMesh: Number of (b)points on node 0 =                91125
PhiOnMesh: nlist on node 0 =               451037

        iscf     Eharris(eV)        E_KS(eV)     FreeEng(eV)     dDmax    Ef(eV) dHmax(eV)
   scf:    1     -896.836994     -897.261010     -897.273995  0.585950 -6.525227  1.222270
   scf:    2     -895.659304     -896.797042     -896.824163  0.293182 -7.110441  3.471956
   scf:    3     -897.480403     -897.310484     -897.326426  0.193838 -6.659063  0.431643
   scf:    4     -897.311115     -897.310804     -897.326740  0.001188 -6.657112  0.415236
   scf:    5     -897.308781     -897.312371     -897.331220  0.027067 -6.612347  0.255768
   scf:    6     -897.227933     -897.287490     -897.305333  0.067386 -6.635281  0.780753
   scf:    7     -897.302915     -897.309856     -897.334486  0.031519 -6.591277  0.045699
   scf:    8     -897.309872     -897.309864     -897.334488  0.000090 -6.591148  0.046867
   scf:    9     -897.316955     -897.313844     -897.334690  0.023784 -6.596449  0.051682
   scf:   10     -897.312803     -897.313376     -897.334848  0.003549 -6.596822  0.011492
   scf:   11     -897.313522     -897.313516     -897.334892  0.009047 -6.599199  0.013704
   scf:   12     -897.313808     -897.313667     -897.334903  0.001729 -6.599028  0.007643
   scf:   13     -897.313110     -897.313390     -897.334921  0.001429 -6.599185  0.007247
   scf:   14     -897.313062     -897.313226     -897.334929  0.000944 -6.599332  0.006564
   scf:   15     -897.312786     -897.313010     -897.334943  0.002608 -6.601132  0.001733
   scf:   16     -897.312979     -897.312994     -897.334943  0.000171 -6.601128  0.001404
   scf:   17     -897.312839     -897.312917     -897.334943  0.000688 -6.600952  0.000968
   scf:   18     -897.312837     -897.312877     -897.334944  0.000368 -6.600982  0.001218
   scf:   19     -897.312864     -897.312870     -897.334944  0.000135 -6.601010  0.001300
   scf:   20     -897.312894     -897.312882     -897.334944  0.000300 -6.601055  0.001319
   scf:   21     -897.312859     -897.312871     -897.334944  0.000068 -6.601081  0.001288
   scf:   22     -897.312847     -897.312859     -897.334944  0.000082 -6.601115  0.001253
   scf:   23     -897.312834     -897.312846     -897.334944  0.000127 -6.601149  0.001149
   scf:   24     -897.312838     -897.312842     -897.334944  0.000069 -6.601140  0.001000
   scf:   25     -897.312858     -897.312850     -897.334944  0.000138 -6.601184  0.000680

SCF Convergence by DM+H criterion
max |DM_out - DM_in|         :     0.0001376792
max |H_out - H_in|      (eV) :     0.0006798193
SCF cycle converged after 25 iterations

Using DM_out to compute the final energy and forces
No. of atoms with KB's overlaping orbs in proc 0. Max # of overlaps:       4      36

siesta: E_KS(eV) =             -897.3129

siesta: Atomic forces (eV/Ang):
----------------------------------------
   Tot   -0.003875    0.005005    0.003595
----------------------------------------
   Max    3.979434
   Res    2.010136    sqrt( Sum f_i^2 / 3N )
----------------------------------------
   Max    3.979434    constrained

Stress tensor Voigt[x,y,z,yz,xz,xy] (kbar):        2.10        0.85       10.44       -1.68        2.48        1.63
(Free)E + p*V (eV/cell)     -900.1191
Target enthalpy (eV/cell)     -897.3349

siesta: Stress tensor (static) (eV/Ang**3):
         0.003074    0.001401    0.001458
         0.001401    0.001365   -0.001728
         0.001458   -0.001728    0.008056

siesta: Pressure (static):         -6.67295007  kBar

siesta: Stress tensor (total) (eV/Ang**3):
         0.001308    0.001020    0.001548
         0.001020    0.000529   -0.001048
         0.001548   -0.001048    0.006516

siesta: Pressure (total):         -4.46070535  kBar

siesta: Temp_ion =    5540.373 K

coxmol: Writing XMOL coordinates into file xoc.xyz                                                             

siesta: Program's energy decomposition (eV):
siesta: Ebs     =      -183.843333
siesta: Eions   =      1592.294315
siesta: Ena     =       382.215936
siesta: Ekin    =       623.923359
siesta: Enl     =       -88.661124
siesta: Eso     =         0.000000
siesta: Edftu   =         0.000000
siesta: DEna    =       -23.599245
siesta: DUscf   =         3.568250
siesta: DUext   =         0.000000
siesta: Exc     =      -202.465712
siesta: eta*DQ  =         0.000000
siesta: Emadel  =         0.000000
siesta: Emeta   =         0.000000
siesta: Emolmec =         0.000000
siesta: Ekinion =         2.148363
siesta: Eharris =      -895.164496
siesta: Etot    =      -895.164487
siesta: FreeEng =      -895.186581

siesta: Final energy (eV):
siesta:  Band Struct. =    -183.843333
siesta:       Kinetic =     623.923359
siesta:       Hartree =     854.262574
siesta:       Edftu   =       0.000000
siesta:       Eso     =       0.000000
siesta:    Ext. field =       0.000000
siesta:   Exch.-corr. =    -202.465712
siesta:  Ion-electron =   -2258.362883
siesta:       Ion-ion =      85.329811
siesta:       Ekinion =       2.148363
siesta:         Total =    -895.164487
siesta:         Fermi =      -6.601184

siesta: Atomic forces (eV/Ang):
siesta:      1    1.542090    1.485259   -2.072253
siesta:      2    0.847924   -1.035716    3.979434
siesta:      3   -0.587407   -0.691852    1.878563
siesta:      4   -1.806482    0.247314   -3.782149
siesta: ----------------------------------------
siesta:    Tot   -0.003875    0.005005    0.003595

siesta: Stress tensor (static) (eV/Ang**3):
siesta:     0.003074    0.001401    0.001458
siesta:     0.001401    0.001365   -0.001728
siesta:     0.001458   -0.001728    0.008056

siesta: Cell volume =       1000.000000 Ang**3

siesta: Pressure (static):
siesta:                Solid            Molecule  Units
siesta:          -0.00004536         -0.00000010  Ry/Bohr**3
siesta:          -0.00416488         -0.00000932  eV/Ang**3
siesta:          -6.67295007         -0.01493446  kBar
(Free)E+ p_basis*V_orbitals  =        -895.126353
(Free)Eharris+ p_basis*V_orbitals  =        -895.126361

siesta: Electric dipole (a.u.)  =    0.685823    0.435972    0.340679
siesta: Electric dipole (Debye) =    1.743189    1.108130    0.865919

cite: Please see "xoc.bib" for an exhaustive BiBTeX file.
cite: Please clearly indicate Siesta version in published work: 4.1.5
cite: This calculation has made use of the following articles
cite: which are encouraged to be cited in a published work.
        Primary SIESTA paper
          DOI: www.doi.org/10.1088/0953-8984/14/11/302


timer: Elapsed wall time (sec) =    1761.817
timer: CPU execution times (sec):

Routine            Calls   Time/call    Tot.time        %
siesta                 1    4904.258    4904.258   100.00
Setup                  1       0.184       0.184     0.00
bands                  1       0.000       0.000     0.00
KSV_init               1       0.000       0.000     0.00
IterGeom             100      49.041    4904.063   100.00
state_init           100       0.006       0.621     0.01
hsparse              100       0.001       0.067     0.00
overlap              100       0.003       0.290     0.01
Setup_H0             100       0.597      59.654     1.22
naefs                200       0.000       0.014     0.00
MolMec               200       0.000       0.000     0.00
kinefsm              200       0.002       0.364     0.01
nlefsm               200       0.008       1.665     0.03
DHSCF_Init           100       0.581      58.097     1.18
DHSCF1               100       0.035       3.478     0.07
INITMESH             100       0.000       0.001     0.00
DHSCF2               100       0.546      54.617     1.11
REMESH               100       0.084       8.367     0.17
REORD               8716       0.001       8.280     0.17
PHION                100       0.333      33.320     0.68
COMM_BSC           14732       0.001      12.073     0.25
POISON              3708       0.086     318.398     6.49
fft                 7416       0.038     282.085     5.75
IterSCF             3408       1.397    4760.846    97.08
setup_H             3508       0.876    3071.964    62.64
DHSCF               3608       0.873    3148.057    64.19
DHSCF3              3608       0.862    3109.930    63.41
rhoofd              3608       0.301    1085.022    22.12
XC                  3608       0.292    1053.183    21.47
GXC-CellXC          3608       0.290    1044.789    21.30
cellXC              3608       0.290    1044.731    21.30
vmat                3608       0.024      85.446     1.74
compute_dm          3408       0.494    1683.800    34.33
diagon              3408       0.494    1681.854    34.29
r-eigvec            3408       0.487    1658.499    33.82
r-buildHS           3408       0.000       0.049     0.00
rdiag               3408       0.486    1657.913    33.81
rdiag1              3408       0.130     443.860     9.05
rdiag2              3408       0.204     694.452    14.16
rdiag3              3408       0.149     506.210    10.32
rdiag4              3408       0.003      11.452     0.23
r-buildD            3408       0.006      19.154     0.39
MIXER               3308       0.000       0.204     0.00
PostSCF              100       0.819      81.857     1.67
DHSCF4               100       0.376      37.557     0.77
dfscf                100       0.325      32.543     0.66
overfsm              100       0.001       0.052     0.00
state_analysis       100       0.002       0.222     0.00
siesta_move          100       0.007       0.710     0.01
Analysis               1       0.008       0.008     0.00
siesta_analysis        1       0.008       0.008     0.00
optical                1       0.000       0.000     0.00
  
>> End of run:  17-MAR-2023  16:13:14
Job completed
