Siesta Version  : 4.1.5
Architecture    : unknown
Compiler version: GNU Fortran (GCC) 9.3.0
Compiler flags  : mpifort -fPIC -O2 -ftree-vectorize -march=native -mno-recip
PP flags        : -DFC_HAVE_ABORT -DF2003 -DMPI -DCDF -DNCDF -DNCDF_4 -DNCDF_PARALLEL -I/dragoffs/sw/foss/0.2/software/netCDF-Fortran/4.5.2-gompi-2020a/include -DSIESTA__ELPA -I/dragofs/sw/foss/0.2/software/ELPA/2019.11.001-foss-2020a/include/elpa-2019.11.001/modules -DSIESTA__METIS
Libraries       : libncdf.a libfdict.a -lscalapack -lopenblas -lgfortran -lnetcdff -L/dragofs/ssw/foss/0.2/software/ELPA/2019.11.001-foss-2020a/lib -lelpa -L/dragofs/sw/foss/0.2/software/METIS/5.1.0-GCCcore-9.3.0/lib -lmetis
PARALLEL version
NetCDF support
NetCDF-4 support
NetCDF-4 MPI-IO support
METIS ordering support

* Running in serial mode with MPI
>> Start of run:  13-MAR-2023  18:18:18

                           ***********************       
                           *  WELCOME TO SIESTA  *       
                           ***********************       

reinit: Reading from standard input
reinit: Dumped input in INPUT_TMP.76602
************************** Dump of input data file ****************************
%include STRUCT.fdf
SystemLabel siesta_1
PAO.BasisSize SZP
MeshCutoff 250. Ry
CDF.Save true
CDF.Compress 9
SaveHS true
SaveRho true
#Output
WriteCoorXmol          true         #Save the final coordinates in .xyz format
************************** End of input data file *****************************

reinit: -----------------------------------------------------------------------
reinit: System Name: 
reinit: -----------------------------------------------------------------------
reinit: System Label: siesta_1
reinit: -----------------------------------------------------------------------

initatom: Reading input for the pseudopotentials and atomic orbitals ----------
Species number:   1 Atomic number:    8 Label: O
Species number:   2 Atomic number:    1 Label: H

Ground state valence configuration:   2s02  2p04
Reading pseudopotential information in formatted form from O.psf

Pseudopotential generated from a relativistic atomic calculation

Valence configuration for pseudopotential generation:
2s( 2.00) rc: 1.14
2p( 4.00) rc: 1.14
3d( 0.00) rc: 1.14
4f( 0.00) rc: 1.14
Ground state valence configuration:   1s01
Reading pseudopotential information in unformatted form from H.vps

Valence configuration for pseudopotential generation:
1s( 1.00) rc: 1.25
2p( 0.00) rc: 1.25
3d( 0.00) rc: 1.25
4f( 0.00) rc: 1.25
For O, standard SIESTA heuristics set lmxkb to 3
 (one more than the basis l, including polarization orbitals).
Use PS.lmax or PS.KBprojectors blocks to override.
For H, standard SIESTA heuristics set lmxkb to 2
 (one more than the basis l, including polarization orbitals).
Use PS.lmax or PS.KBprojectors blocks to override.

<basis_specs>
===============================================================================
O                    Z=   8    Mass=  16.000        Charge= 0.17977+309
Lmxo=1 Lmxkb= 3    BasisType=split      Semic=F
L=0  Nsemic=0  Cnfigmx=2
          i=1  nzeta=1  polorb=0  (2s)
            splnorm:   0.15000    
               vcte:    0.0000    
               rinn:    0.0000    
               qcoe:    0.0000    
               qyuk:    0.0000    
               qwid:   0.10000E-01
                rcs:    0.0000    
            lambdas:    1.0000    
L=1  Nsemic=0  Cnfigmx=2
          i=1  nzeta=1  polorb=1  (2p)
            splnorm:   0.15000    
               vcte:    0.0000    
               rinn:    0.0000    
               qcoe:    0.0000    
               qyuk:    0.0000    
               qwid:   0.10000E-01
                rcs:    0.0000    
            lambdas:    1.0000    
-------------------------------------------------------------------------------
L=0  Nkbl=1  erefs: 0.17977+309
L=1  Nkbl=1  erefs: 0.17977+309
L=2  Nkbl=1  erefs: 0.17977+309
L=3  Nkbl=1  erefs: 0.17977+309
===============================================================================
</basis_specs>

atom: Called for O                     (Z =   8)

read_vps: Pseudopotential generation method:
read_vps: ATM3      Troullier-Martins                       
Valence charge for ps generation:    6.00000

read_vps: Pseudopotential includes a core correction:
read_vps: Pseudo-core for xc-correction

xc_check: Exchange-correlation functional:
xc_check: Ceperley-Alder
xc_check: WARNING: Pseudopotential generated with GGA PBE functional
V l=0 = -2*Zval/r beyond r=  1.1278
V l=1 = -2*Zval/r beyond r=  1.1278
V l=2 = -2*Zval/r beyond r=  1.1278
V l=3 = -2*Zval/r beyond r=  1.1278
All V_l potentials equal beyond r=  1.1278
This should be close to max(r_c) in ps generation
All pots = -2*Zval/r beyond r=  1.1278

VLOCAL1: 99.0% of the norm of Vloc inside     34.126 Ry
VLOCAL1: 99.9% of the norm of Vloc inside     77.774 Ry
atom: Maximum radius for 4*pi*r*r*local-pseudopot. charge    1.37759
atom: Maximum radius for r*vlocal+2*Zval:    1.18566
GHOST: No ghost state for L =  0
GHOST: No ghost state for L =  1
GHOST: No ghost state for L =  2
GHOST: No ghost state for L =  3

KBgen: Kleinman-Bylander projectors: 
   l= 0   rc=  1.360471   el= -1.736237   Ekb=  9.220172   kbcos=  0.326153
   l= 1   rc=  1.360471   el= -0.644047   Ekb= -7.926672   kbcos= -0.387241
   l= 2   rc=  1.791199   el=  0.002386   Ekb= -1.950730   kbcos= -0.003496
   l= 3   rc=  2.107308   el=  0.003508   Ekb= -0.855896   kbcos= -0.000333

KBgen: Total number of Kleinman-Bylander projectors:   16
atom: -------------------------------------------------------------------------

atom: SANKEY-TYPE ORBITALS:

SPLIT: Orbitals with angular momentum L= 0

SPLIT: Basis orbitals for state 2s

SPLIT: PAO cut-off radius determined from an
SPLIT: energy shift=  0.020000 Ry

   izeta = 1
                 lambda =    1.000000
                     rc =    3.305093
                 energy =   -1.717485
                kinetic =    1.613978
    potential(screened) =   -3.331464
       potential(ionic) =  -11.298563

SPLIT: Orbitals with angular momentum L= 1

SPLIT: Basis orbitals for state 2p

SPLIT: PAO cut-off radius determined from an
SPLIT: energy shift=  0.020000 Ry

   izeta = 1
                 lambda =    1.000000
                     rc =    3.937239
                 energy =   -0.624579
                kinetic =    4.887883
    potential(screened) =   -5.512463
       potential(ionic) =  -13.256966

POLgen: Perturbative polarization orbital with L=  2

POLgen: Polarization orbital for state 2p

   izeta = 1
                     rc =    3.937239
                 energy =    2.362801
                kinetic =    4.614639
    potential(screened) =   -2.251838
       potential(ionic) =   -8.501390
atom: Total number of Sankey-type orbitals:  9

atm_pop: Valence configuration (for local Pseudopot. screening):
 2s( 2.00)                                                            
 2p( 4.00)                                                            
Vna: chval, zval:    6.00000   6.00000

Vna:  Cut-off radius for the neutral-atom potential:   3.937239
comcore: Pseudo-core radius Rcore=  1.377587

atom: _________________________________________________________________________

<basis_specs>
===============================================================================
H                    Z=   1    Mass=  1.0100        Charge= 0.17977+309
Lmxo=0 Lmxkb= 2    BasisType=split      Semic=F
L=0  Nsemic=0  Cnfigmx=1
          i=1  nzeta=1  polorb=1  (1s)
            splnorm:   0.15000    
               vcte:    0.0000    
               rinn:    0.0000    
               qcoe:    0.0000    
               qyuk:    0.0000    
               qwid:   0.10000E-01
                rcs:    0.0000    
            lambdas:    1.0000    
-------------------------------------------------------------------------------
L=0  Nkbl=1  erefs: 0.17977+309
L=1  Nkbl=1  erefs: 0.17977+309
L=2  Nkbl=1  erefs: 0.17977+309
===============================================================================
</basis_specs>

atom: Called for H                     (Z =   1)

read_vps: Pseudopotential generation method:
read_vps: ATM3      Troullier-Martins                       
Valence charge for ps generation:    1.00000

xc_check: Exchange-correlation functional:
xc_check: Ceperley-Alder
xc_check: WARNING: Pseudopotential generated with GGA PBE functional
V l=0 = -2*Zval/r beyond r=  1.2343
V l=1 = -2*Zval/r beyond r=  1.2189
V l=2 = -2*Zval/r beyond r=  1.2189
All V_l potentials equal beyond r=  1.2343
This should be close to max(r_c) in ps generation
All pots = -2*Zval/r beyond r=  1.2343

VLOCAL1: 99.0% of the norm of Vloc inside     28.493 Ry
VLOCAL1: 99.9% of the norm of Vloc inside     64.935 Ry
atom: Maximum radius for 4*pi*r*r*local-pseudopot. charge    1.45251
atom: Maximum radius for r*vlocal+2*Zval:    1.21892
GHOST: No ghost state for L =  0
GHOST: No ghost state for L =  1
GHOST: No ghost state for L =  2

KBgen: Kleinman-Bylander projectors: 
   l= 0   rc=  1.364359   el= -0.456798   Ekb= -2.025210   kbcos= -0.333549
   l= 1   rc=  1.434438   el=  0.001431   Ekb= -0.443225   kbcos= -0.022786
   l= 2   rc=  1.470814   el=  0.002365   Ekb= -0.140409   kbcos= -0.002860

KBgen: Total number of Kleinman-Bylander projectors:    9
atom: -------------------------------------------------------------------------

atom: SANKEY-TYPE ORBITALS:

SPLIT: Orbitals with angular momentum L= 0

SPLIT: Basis orbitals for state 1s

SPLIT: PAO cut-off radius determined from an
SPLIT: energy shift=  0.020000 Ry

   izeta = 1
                 lambda =    1.000000
                     rc =    4.828263
                 energy =   -0.438352
                kinetic =    0.924998
    potential(screened) =   -1.363350
       potential(ionic) =   -1.910288

POLgen: Perturbative polarization orbital with L=  1

POLgen: Polarization orbital for state 1s

   izeta = 1
                     rc =    4.828263
                 energy =    0.711430
                kinetic =    1.389242
    potential(screened) =   -0.677812
       potential(ionic) =   -1.166025
atom: Total number of Sankey-type orbitals:  4

atm_pop: Valence configuration (for local Pseudopot. screening):
 1s( 1.00)                                                            
Vna: chval, zval:    1.00000   1.00000

Vna:  Cut-off radius for the neutral-atom potential:   4.828263

atom: _________________________________________________________________________

prinput: Basis input ----------------------------------------------------------

PAO.BasisType split     

%block ChemicalSpeciesLabel
    1    8 O                       # Species index, atomic number, species label
    2    1 H                       # Species index, atomic number, species label
%endblock ChemicalSpeciesLabel

%block PAO.Basis                 # Define Basis set
O                     2                    # Species label, number of l-shells
 n=2   0   1                         # n, l, Nzeta 
   3.305   
   1.000   
 n=2   1   1 P   1                   # n, l, Nzeta, Polarization, NzetaPol
   3.937   
   1.000   
H                     1                    # Species label, number of l-shells
 n=1   0   1 P   1                   # n, l, Nzeta, Polarization, NzetaPol
   4.828   
   1.000   
%endblock PAO.Basis

prinput: ----------------------------------------------------------------------

Dumping basis to NetCDF file O.ion.nc
Dumping basis to NetCDF file H.ion.nc
coor:   Atomic-coordinates input format  =     Cartesian coordinates
coor:                                          (in Angstroms)

siesta: Atomic coordinates (Bohr) and species
siesta:      0.00000   0.00000   0.00000  1        1
siesta:      1.51178   1.13384   0.00000  2        2
siesta:     -1.51178   1.13384   0.00000  2        3

siesta: System type = molecule  

initatomlists: Number of atoms, orbitals, and projectors:      3    17    34

coxmol: Writing XMOL coordinates into file siesta_1.xyz                                                        

siesta: ******************** Simulation parameters ****************************
siesta:
siesta: The following are some of the parameters of the simulation.
siesta: A complete list of the parameters used, including default values,
siesta: can be found in file out.fdf
siesta:
redata: Spin configuration                          = none
redata: Number of spin components                   = 1
redata: Time-Reversal Symmetry                      = T
redata: Spin spiral                                 = F
redata: Long output                                 =   F
redata: Number of Atomic Species                    =        2
redata: Charge density info will appear in .RHO file
redata: Write Mulliken Pop.                         = NO
redata: Matel table size (NRTAB)                    =     1024
redata: Mesh Cutoff                                 =   250.0000 Ry
redata: Net charge of the system                    =     0.0000 |e|
redata: Min. number of SCF Iter                     =        0
redata: Max. number of SCF Iter                     =     1000
redata: SCF convergence failure will abort job
redata: SCF mix quantity                            = Hamiltonian
redata: Mix DM or H after convergence               =   F
redata: Recompute H after scf cycle                 =   F
redata: Mix DM in first SCF step                    =   T
redata: Write Pulay info on disk                    =   F
redata: New DM Occupancy tolerance                  = 0.000000000001
redata: No kicks to SCF
redata: DM Mixing Weight for Kicks                  =     0.5000
redata: Require Harris convergence for SCF          =   F
redata: Harris energy tolerance for SCF             =     0.000100 eV
redata: Require DM convergence for SCF              =   T
redata: DM tolerance for SCF                        =     0.000100
redata: Require EDM convergence for SCF             =   F
redata: EDM tolerance for SCF                       =     0.001000 eV
redata: Require H convergence for SCF               =   T
redata: Hamiltonian tolerance for SCF               =     0.001000 eV
redata: Require (free) Energy convergence for SCF   =   F
redata: (free) Energy tolerance for SCF             =     0.000100 eV
redata: Using Saved Data (generic)                  =   F
redata: Use continuation files for DM               =   F
redata: Neglect nonoverlap interactions             =   F
redata: Method of Calculation                       = Diagonalization
redata: Electronic Temperature                      =   299.9869 K
redata: Fix the spin of the system                  =   F
redata: Dynamics option                             = Single-point calculation
mix.SCF: Pulay mixing                            = Pulay
mix.SCF:    Variant                              = stable
mix.SCF:    History steps                        = 2
mix.SCF:    Linear mixing weight                 =     0.250000
mix.SCF:    Mixing weight                        =     0.250000
mix.SCF:    SVD condition                        = 0.1000E-07
redata: Save all siesta data in one NC              =   T
redata: NC compression level                        =        9
redata: ***********************************************************************

%block SCF.Mixers
  Pulay
%endblock SCF.Mixers

%block SCF.Mixer.Pulay
  # Mixing method
  method pulay
  variant stable

  # Mixing options
  weight 0.2500
  weight.linear 0.2500
  history 2
%endblock SCF.Mixer.Pulay

DM_history_depth set to one: no extrapolation allowed by default for geometry relaxation
Size of DM history Fstack: 1
Total number of electrons:     8.000000
Total ionic charge:     8.000000

* ProcessorY, Blocksize:    1  18


* Orbital distribution balance (max,min):    17    17

 Kpoints in:            1 . Kpoints trimmed:            1

siesta: k-grid: Number of k-points =     1
siesta: k-grid: Cutoff (effective) =     5.000 Ang
siesta: k-grid: Supercell and displacements
siesta: k-grid:    1   0   0      0.000
siesta: k-grid:    0   1   0      0.000
siesta: k-grid:    0   0   1      0.000

diag: Algorithm                                     = D&C
diag: Parallel over k                               =   F
diag: Use parallel 2D distribution                  =   F
diag: Parallel block-size                           = 18
diag: Parallel distribution                         =     1 x     1
diag: Used triangular part                          = Lower
diag: Absolute tolerance                            =  0.100E-15
diag: Orthogonalization factor                      =  0.100E-05
diag: Memory factor                                 =  1.0000


ts: **************************************************************
ts: Save H and S matrices                           =    F
ts: Save DM and EDM matrices                        =    F
ts: Only save the overlap matrix S                  =    F
ts: **************************************************************

************************ Begin: TS CHECKS AND WARNINGS ************************
************************ End: TS CHECKS AND WARNINGS **************************


                     ====================================
                        Single-point calculation
                     ====================================

outcell: Unit cell vectors (Ang):
       10.000000    0.000000    0.000000
        0.000000   10.000000    0.000000
        0.000000    0.000000   10.000000

outcell: Cell vector modules (Ang)   :   10.000000   10.000000   10.000000
outcell: Cell angles (23,13,12) (deg):     90.0000     90.0000     90.0000
outcell: Cell volume (Ang**3)        :   1000.0000
<dSpData1D:S at geom step 0
  <sparsity:sparsity for geom step 0
    nrows_g=17 nrows=17 sparsity=1.0000 nnzs=289, refcount: 7>
  <dData1D:(new from dSpData1D) n=289, refcount: 1>
refcount: 1>
new_DM -- step:     1
Initializing Density Matrix...
DM filled with atomic data:
<dSpData2D:DM initialized from atoms
  <sparsity:sparsity for geom step 0
    nrows_g=17 nrows=17 sparsity=1.0000 nnzs=289, refcount: 8>
  <dData2D:DM n=289 m=1, refcount: 1>
refcount: 1>
No. of atoms with KB's overlaping orbs in proc 0. Max # of overlaps:       3      17
New grid distribution:   1
           1       1:   48    1:   48    1:   48

InitMesh: MESH =    96 x    96 x    96 =      884736
InitMesh: (bp) =    48 x    48 x    48 =      110592
InitMesh: Mesh cutoff (required, used) =   250.000   254.709 Ry
ExtMesh (bp) on 0 =   100 x   100 x   100 =     1000000
PhiOnMesh: Number of (b)points on node 0 =               110592
PhiOnMesh: nlist on node 0 =               107688

stepf: Fermi-Dirac step function

siesta: Program's energy decomposition (eV):
siesta: Ebs     =       -87.672620
siesta: Eions   =       815.854478
siesta: Ena     =       178.223819
siesta: Ekin    =       358.034048
siesta: Enl     =       -59.959538
siesta: Eso     =         0.000000
siesta: Edftu   =         0.000000
siesta: DEna    =       -10.431987
siesta: DUscf   =         1.857987
siesta: DUext   =         0.000000
siesta: Exc     =      -116.037154
siesta: eta*DQ  =         0.000000
siesta: Emadel  =         0.000000
siesta: Emeta   =         0.000000
siesta: Emolmec =         0.000000
siesta: Ekinion =         0.000000
siesta: Eharris =      -465.434930
siesta: Etot    =      -464.167303
siesta: FreeEng =      -464.167303

        iscf     Eharris(eV)        E_KS(eV)     FreeEng(eV)     dDmax    Ef(eV) dHmax(eV)
   scf:    1     -465.434930     -464.167303     -464.167303  0.677483 -7.577099  5.136075
timer: Routine,Calls,Time,% = IterSCF        1       0.951  43.90
   scf:    2     -465.093880     -464.703508     -464.703508  0.083828 -6.636888  2.196659
   scf:    3     -464.823099     -464.799217     -464.799217  0.057543 -5.997530  0.225143
   scf:    4     -464.805128     -464.802392     -464.802392  0.005232 -6.003290  0.203452
   scf:    5     -464.804808     -464.803730     -464.803730  0.004382 -5.990324  0.149056
   scf:    6     -464.804256     -464.804022     -464.804022  0.002891 -5.952535  0.062315
   scf:    7     -464.804035     -464.804035     -464.804035  0.000843 -5.922373  0.022909
   scf:    8     -464.804085     -464.804062     -464.804062  0.000407 -5.920816  0.014189
   scf:    9     -464.804077     -464.804067     -464.804067  0.000405 -5.920441  0.005442
   scf:   10     -464.804069     -464.804068     -464.804068  0.000092 -5.921263  0.002585
   scf:   11     -464.804068     -464.804068     -464.804068  0.000034 -5.922029  0.000772

SCF Convergence by DM+H criterion
max |DM_out - DM_in|         :     0.0000338502
max |H_out - H_in|      (eV) :     0.0007717246
SCF cycle converged after 11 iterations

Using DM_out to compute the final energy and forces
No. of atoms with KB's overlaping orbs in proc 0. Max # of overlaps:       3      17

siesta: E_KS(eV) =             -464.8041

siesta: E_KS - E_eggbox =      -464.8041

siesta: Atomic forces (eV/Ang):
----------------------------------------
   Tot   -0.000000   -0.002494   -0.000000
----------------------------------------
   Max    1.738479
   Res    0.747902    sqrt( Sum f_i^2 / 3N )
----------------------------------------
   Max    1.738479    constrained

Stress tensor Voigt[x,y,z,yz,xz,xy] (kbar):       -1.30       -1.66       -0.00        0.00       -0.00       -0.00
(Free)E + p*V (eV/cell)     -464.1879
Target enthalpy (eV/cell)     -464.8041

coxmol: Writing XMOL coordinates into file siesta_1.xyz                                                        

siesta: Program's energy decomposition (eV):
siesta: Ebs     =      -105.746817
siesta: Eions   =       815.854478
siesta: Ena     =       178.223819
siesta: Ekin    =       339.811681
siesta: Enl     =       -55.223661
siesta: Eso     =         0.000000
siesta: Edftu   =         0.000000
siesta: DEna    =         0.360580
siesta: DUscf   =         0.770338
siesta: DUext   =         0.000000
siesta: Exc     =      -112.892347
siesta: eta*DQ  =         0.000000
siesta: Emadel  =         0.000000
siesta: Emeta   =         0.000000
siesta: Emolmec =         0.000000
siesta: Ekinion =         0.000000
siesta: Eharris =      -464.804068
siesta: Etot    =      -464.804068
siesta: FreeEng =      -464.804068

siesta: Final energy (eV):
siesta:  Band Struct. =    -105.746817
siesta:       Kinetic =     339.811681
siesta:       Hartree =     444.334947
siesta:       Edftu   =       0.000000
siesta:       Eso     =       0.000000
siesta:    Ext. field =       0.000000
siesta:   Exch.-corr. =    -112.892347
siesta:  Ion-electron =   -1188.647758
siesta:       Ion-ion =      52.589409
siesta:       Ekinion =       0.000000
siesta:         Total =    -464.804068
siesta:         Fermi =      -5.922029

siesta: Atomic forces (eV/Ang):
siesta:      1   -0.000000   -1.738479    0.000000
siesta:      2    0.502537    0.867993   -0.000000
siesta:      3   -0.502537    0.867993   -0.000000
siesta: ----------------------------------------
siesta:    Tot   -0.000000   -0.002494   -0.000000

siesta: Stress tensor (static) (eV/Ang**3):
siesta:    -0.000810    0.000000    0.000000
siesta:    -0.000000   -0.001037    0.000000
siesta:    -0.000000    0.000000   -0.000002

siesta: Cell volume =       1000.000000 Ang**3

siesta: Pressure (static):
siesta:                Solid            Molecule  Units
siesta:           0.00000671          0.00000001  Ry/Bohr**3
siesta:           0.00061614          0.00000059  eV/Ang**3
siesta:           0.98717807          0.00094885  kBar
(Free)E+ p_basis*V_orbitals  =        -464.332661
(Free)Eharris+ p_basis*V_orbitals  =        -464.332661

siesta: Electric dipole (a.u.)  =    0.000000    0.494794   -0.000000
siesta: Electric dipole (Debye) =    0.000000    1.257642   -0.000000

cite: Please see "siesta_1.bib" for an exhaustive BiBTeX file.
cite: Please clearly indicate Siesta version in published work: 4.1.5
cite: This calculation has made use of the following articles
cite: which are encouraged to be cited in a published work.
        Primary SIESTA paper
          DOI: www.doi.org/10.1088/0953-8984/14/11/302


timer: Elapsed wall time (sec) =       4.283
timer: CPU execution times (sec):

Routine            Calls   Time/call    Tot.time        %
siesta                 1      10.714      10.714   100.00
Setup                  1       0.125       0.125     1.16
bands                  1       0.000       0.000     0.00
KSV_init               1       0.000       0.000     0.00
IterGeom               1      10.242      10.242    95.59
state_init             1       0.135       0.135     1.26
hsparse                1       0.000       0.000     0.00
overlap                1       0.085       0.085     0.79
CDF-basis              1       0.029       0.029     0.27
CDF                   13       0.012       0.162     1.52
Setup_H0               1       0.948       0.948     8.85
naefs                  2       0.000       0.001     0.01
MolMec                 2       0.000       0.000     0.00
kinefsm                2       0.040       0.080     0.75
nlefsm                 2       0.305       0.610     5.70
DHSCF_Init             1       0.258       0.258     2.41
DHSCF1                 1       0.023       0.023     0.21
INITMESH               1       0.000       0.000     0.00
DHSCF2                 1       0.235       0.235     2.20
REMESH                 1       0.015       0.015     0.14
REORD                 42       0.008       0.328     3.07
PHION                  1       0.071       0.071     0.66
COMM_BSC              58       0.006       0.334     3.12
POISON                15       0.123       1.839    17.16
fft                   30       0.056       1.674    15.63
IterSCF               11       0.803       8.832    82.44
setup_H               12       0.600       7.202    67.21
DHSCF                 14       0.558       7.811    72.90
DHSCF3                14       0.550       7.699    71.86
rhoofd                14       0.247       3.459    32.29
XC                    14       0.023       0.329     3.07
GXC-CellXC            14       0.018       0.250     2.34
cellXC                14       0.018       0.250     2.33
vmat                  13       0.005       0.064     0.59
writeHSX              13       0.001       0.019     0.18
compute_dm            11       0.136       1.493    13.93
diagon                11       0.136       1.493    13.93
r-eigvec              11       0.136       1.492    13.93
r-buildHS             11       0.000       0.000     0.00
rdiag                 11       0.136       1.492    13.92
rdiag1                11       0.094       1.033     9.64
rdiag2                11       0.005       0.058     0.54
rdiag3                11       0.036       0.400     3.74
rdiag4                11       0.000       0.000     0.00
r-buildD              11       0.000       0.000     0.00
MIXER                 10       0.000       0.000     0.00
PostSCF                1       0.307       0.307     2.87
DHSCF4                 1       0.112       0.112     1.04
dfscf                  1       0.081       0.081     0.76
overfsm                1       0.000       0.000     0.00
state_analysis         1       0.002       0.002     0.02
siesta_move            1       0.000       0.000     0.00
Analysis               1       0.347       0.347     3.24
siesta_analysis        1       0.347       0.347     3.24
optical                1       0.000       0.000     0.00
CDF-grid               1       0.157       0.157     1.46
  
>> End of run:  13-MAR-2023  18:18:22
Job completed
