--------------------------------------------------------------------------
WARNING: There is at least non-excluded one OpenFabrics device found,
but there are no active ports detected (or Open MPI was unable to use
them).  This is most certainly not what you wanted.  Check your
cables, subnet manager configuration, etc.  The openib BTL will be
ignored for this job.

  Local host: compute-0-5
--------------------------------------------------------------------------

                           ***********************       
                           *  WELCOME TO SIESTA  *       
                           ***********************       

reinit: Reading from standard input
reinit: Dumped input in INPUT_TMP.07231
************************** Dump of input data file ****************************
SystemName H2 + O2 -> H2O2 reaction # Descriptive name of the system
SystemLabel            xoc         # Short name for naming files
# Output options
#WriteCoorStep
#WriteMullikenPop       1
# Species and atoms
NumberOfSpecies       2
NumberOfAtoms         4
%block ChemicalSpeciesLabel
  1   8  O
  2   1  H
%endblock ChemicalSpeciesLabel
# Basis
%block PAO.Basis
O    3     -0.18518
 n=2   0   2   E    87.07381     4.73934
     7.32942     4.60369
     1.00000     1.00000
 n=2   1   2   E    68.29553     4.97037
     6.60250     3.04671
     1.00000     1.00000
 n=3   2   1   E    91.07115     3.95115
     6.89342
     1.00000
H     2      0.22
 n=1    0    2   E      2.07      0.00
   4.971   1.771
   1.000   1.000
 n=2    1    1   E      0.89      0.01
   4.988
   1.000
%endblock PAO.Basis
LatticeConstant       1.0000 Ang
%block LatticeVectors
20.00000   0.000000  0.000000
 0.00000  20.000000  0.000000
 0.00000   0.000000 20.000000
%endblock LatticeVectors
%block kgrid_Monkhorst_Pack
   1  0  0  0.
   0  1  0  0.
   0  0  1  0.
%endblock Kgrid_Monkhorst_Pack
xc.functional         GGA           # Exchange-correlation functional
xc.authors            PBE           # Exchange-correlation version
#SpinPolarized         true          # Logical parameters are: yes or no
MeshCutoff           200. Ry        # Mesh cutoff. real space mesh
# SCF options
#SCFMustConvergence     true
MaxSCFIterations       150          # Maximum number of SCF iter
DM.MixingWeight       0.02          # New DM amount for next SCF cycle
DM.Tolerance          3.d-4         # Tolerance in maximum difference
                                    # between input and output DM
DM.NumberPulay          6           # to use continuation files
#DM.NumberBroyden       3
#DM.AllowExtrapolation  false
UseSaveData           true
Diag.DivideAndConquer 	true
SolutionMethod        diagon        # OrderN or Diagon
ElectronicTemperature  25 meV       # Temp. for Fermi smearing
# -----------------------------
# MD options
#  options for a basic MD run
# -----------------------------
MD.TypeOfRun         verlet         # Standard Verlet algrithm
                                    # for Molecular Dynamics
#MD.InitialTemperature   700   K    #Assign initial random velocity from
                                    # a Maxwell-Boltzmann distribution
                                    # for a given temperature
UseSaveXV 		true        # use atomic Positions
                                    # and Velocities from
                                    # a saved XV file
MD.LengthTimeStep         0.5 fs    # time step integration
                                    # Newton eqs of motion
MD.Initial.Time.Step     1          #initial time step of MD
MD.FinalTimeStep         200        #Final time step of MD
WriteMDXmol            true         #Writes the coordinates
                                    #of all atoms at all steps
                                    #in a .ANI file
                                    #in xyz format
WriteMDhistory         true         #writes .MDE and .MD files
                                    # with output data from MD simulation
                                    # MDE contains: Temp, energy, volume, pressure
                                    # (human readable)
                                    # MD contains coords vel lattice vectors
                                    # (unformatted; post-process with iomd.f)
# Atomic coordinates
AtomicCoordinatesFormat     Ang
%block AtomicCoordinatesAndAtomicSpecies
        1.348000        0.000000        0.000000  1  ! O 1
        2.652000        0.000000        0.000000  1  ! O 2
        6.628000        0.000000        0.000000  2  ! H 3
        7.372000        0.000000        0.000000  2  ! H 4
%endblock AtomicCoordinatesAndAtomicSpecies
************************** End of input data file *****************************

reinit: -----------------------------------------------------------------------
reinit: System Name: H2 + O2 -> H2O2 reaction
reinit: -----------------------------------------------------------------------
reinit: System Label: xoc
reinit: -----------------------------------------------------------------------
Siesta Version: siesta-4.1--625
Architecture  : x86_64-linux-Intel
Compiler flags: mpifort -m64 -fPIC -O3 -ftree-vectorize -fexpensive-optimizations -funroll-looops -fprefetch-loop-arrays -fno-second-underscore  -flto
PP flags      : -I/home/nicpa/.nicpa_software/2016-oct-ompi/generic/build-tools/1.0/include --I/home/nicpa/.nicpa_software/2016-oct-ompi/generic/gmp/6.1.0/include -I/home/nicpa/.nicpa_software/2016-oct-ompi/generic/mpfr/3.1.4/include -I/home/nicpa/.nicpa_software/2016-oct-ompi/generic/mpc/1.0.3/include -I/home/nicpa/.nicpa_software/2016-oct-ompi/generic/isl/0.16.1/include -I/home/nicpa/.nicpa_software/2016-oct-ompi/generic/gcc/6.2.0/include -I/home/nicpa/.nicpa_software/2016-oct-ompi/generic/numactl/2.0.11/include -I/home/nicpa/.nicpa_software/2016-oct-ompi/zlib/1.2.8/gnu-6.2.0/include -I/home/nicpa/.nicpa_software/2016-oct-ompi/libxml2/2.9.4/gnu-6.2.0/include -I/home/nicpa/.nicpa_software/2016-oct-ompi/hwloc/1.11.4/gnu-6.2.0/include -I/home/nicpa/.nicpa_software/2016-oct-ompi/openmpi/2.0.1/gnu-6.2.0/include -I/home/nicpa/.nicpa_software/2016-oct-ompi/hdf5/1.8.17/gnu-6.2.0/include -I/home/nicpa/.nicpa_software/2016-oct-ompi/pnetcdf/1.7.0/gnu-6.2.0/include -I/home/nicpa/.nicpa_software/2016-oct-ompi/netcdf/4.4.1/gnu-6.2.0/include -I/home/nicpa/.nicpa_software/2016-oct-ompi/flook/0.5/gnu-6.2.0/include -I/home/nicpa/.nicpa_software/2016-oct-ompi/parmetis/4.0.3/gnu-6.2.0/include -I/home/nicpa/.nicpa_software/2016-oct-ompi/scalapack/204/gnu-6.2.0/include -I/home/nicpa/.nicpa_software/2016-oct-ompi/openblas/0.2.19/gnu-6.2.0/include -I/home/nicpa/.nicpa_software/2016-oct-ompi/mumps/5.0.2/gnu-6.2.0/include -I/home/nicpa/.nicpa_software/2016-oct-ompi/fftw/3.3.5/gnu-6.2.0/include -DMPI -DFC_HAVE_FLUSH -DFC_HAVE_ABORT -DCDF -DCDF4 -DSIESTA__FLOOK  -DNCDF -DNCDF_4 -DNCDF_PARALLEL -DSIESTA__METIS -D1 -DTS_NOCHECKS
Libraries     : -lnetcdff -lnetcdf -lpnetcdf -lhdf5_hl -lhdf5 -lz  -lzmumps -lmumps_common -llpord -lparmetis -lmetis -lscalapack -lopenblas   -L/home/nicpa/.nicpa_software/2016-oct-ompi/flook/0.5/gnu-6.2.0/lib -Wl,-rpath=/home/nicpa/.nicpa_software/2016-oct-ompi/flook/0.5/gnu-6.2.0/lib -lflookall -ldl  -flto -fuse-linker-plugin  -lmetis
PARALLEL version
NetCDF support
NetCDF-4 support
NetCDF-4 MPI-IO support
METIS ordering support

* Running on 8 nodes in parallel
>> Start of run:   6-MAY-2019  14:45:33

initatom: Reading input for the pseudopotentials and atomic orbitals ----------
Species number:   1 Atomic number:    8 Label: O
Species number:   2 Atomic number:    1 Label: H

Ground state valence configuration:   2s02  2p04
Reading pseudopotential information in formatted form from O.psf

Pseudopotential generated from a relativistic atomic calculation
There are spin-orbit pseudopotentials available
Spin-orbit interaction is not included in this calculation

Valence configuration for pseudopotential generation:
2s( 2.00) rc: 1.14
2p( 4.00) rc: 1.14
3d( 0.00) rc: 1.14
4f( 0.00) rc: 1.14
Ground state valence configuration:   1s01
Reading pseudopotential information in unformatted form from H.vps

Valence configuration for pseudopotential generation:
1s( 1.00) rc: 1.25
2p( 0.00) rc: 1.25
3d( 0.00) rc: 1.25
4f( 0.00) rc: 1.25
For O, standard SIESTA heuristics set lmxkb to 3
 (one more than the basis l, including polarization orbitals).
Use PS.lmax or PS.KBprojectors blocks to override.
For H, standard SIESTA heuristics set lmxkb to 2
 (one more than the basis l, including polarization orbitals).
Use PS.lmax or PS.KBprojectors blocks to override.

<basis_specs>
===============================================================================
O                    Z=   8    Mass=  16.000        Charge=-0.18518    
Lmxo=2 Lmxkb= 3    BasisType=split      Semic=F
L=0  Nsemic=0  Cnfigmx=2
          n=1  nzeta=2  polorb=0
            splnorm:   0.15000    
               vcte:    87.074    
               rinn:    4.7393    
               qcoe:    0.0000    
               qyuk:    0.0000    
               qwid:   0.10000E-01
                rcs:    7.3294      4.6037    
            lambdas:    1.0000      1.0000    
L=1  Nsemic=0  Cnfigmx=2
          n=1  nzeta=2  polorb=0
            splnorm:   0.15000    
               vcte:    68.296    
               rinn:    4.9704    
               qcoe:    0.0000    
               qyuk:    0.0000    
               qwid:   0.10000E-01
                rcs:    6.6025      3.0467    
            lambdas:    1.0000      1.0000    
L=2  Nsemic=0  Cnfigmx=3
          n=1  nzeta=1  polorb=0
            splnorm:   0.15000    
               vcte:    91.071    
               rinn:    3.9512    
               qcoe:    0.0000    
               qyuk:    0.0000    
               qwid:   0.10000E-01
                rcs:    6.8934    
            lambdas:    1.0000    
-------------------------------------------------------------------------------
L=0  Nkbl=1  erefs: 0.17977+309
L=1  Nkbl=1  erefs: 0.17977+309
L=2  Nkbl=1  erefs: 0.17977+309
L=3  Nkbl=1  erefs: 0.17977+309
===============================================================================
</basis_specs>

atom: Called for O                     (Z =   8)

read_vps: Pseudopotential generation method:
read_vps: ATM3      Troullier-Martins                       
Total valence charge:    6.00000

read_vps: Pseudopotential includes a core correction:
read_vps: Pseudo-core for xc-correction

xc_check: Exchange-correlation functional:
xc_check: GGA Perdew, Burke & Ernzerhof 1996
V l=0 = -2*Zval/r beyond r=  1.1278
V l=1 = -2*Zval/r beyond r=  1.1278
V l=2 = -2*Zval/r beyond r=  1.1278
V l=3 = -2*Zval/r beyond r=  1.1278
All V_l potentials equal beyond r=  1.1278
This should be close to max(r_c) in ps generation
All pots = -2*Zval/r beyond r=  1.1278

VLOCAL1: 99.0% of the norm of Vloc inside     34.126 Ry
VLOCAL1: 99.9% of the norm of Vloc inside     77.774 Ry
atom: Maximum radius for 4*pi*r*r*local-pseudopot. charge    1.37759
atom: Maximum radius for r*vlocal+2*Zval:    1.18566
GHOST: No ghost state for L =  0
GHOST: No ghost state for L =  1
GHOST: No ghost state for L =  2
GHOST: No ghost state for L =  3

KBgen: Kleinman-Bylander projectors: 
   l= 0   rc=  1.360471   el= -1.759790   Ekb=  9.210761   kbcos=  0.328866
   l= 1   rc=  1.360471   el= -0.663797   Ekb= -7.921990   kbcos= -0.392961
   l= 2   rc=  1.791199   el=  0.002031   Ekb= -1.950550   kbcos= -0.003498
   l= 3   rc=  2.107308   el=  0.003153   Ekb= -0.856060   kbcos= -0.000334

KBgen: Total number of  Kleinman-Bylander projectors:   16
atom: -------------------------------------------------------------------------

atom: SANKEY-TYPE ORBITALS:
atom: Selected multiple-zeta basis: split     

atom: basis set generated (by rescaling the valence charge)
atom: for an anion of charge  -0.1852

SPLIT: Orbitals with angular momentum L= 0

SPLIT: Basis orbitals for state 2s

   izeta = 1
                 lambda =    1.000000
                     rc =    7.356000
                 energy =   -1.758588
                kinetic =    1.491851
    potential(screened) =   -3.250439
       potential(ionic) =  -11.062471

   izeta = 2
                 rmatch =    4.690281
              splitnorm =    0.003309
                 energy =   -1.757602
* WARNING: effective split_norm is quite small. Orbitals will be very similar.
                kinetic =    1.574378
    potential(screened) =   -3.331980
       potential(ionic) =  -11.238433

SPLIT: Orbitals with angular momentum L= 1

SPLIT: Basis orbitals for state 2p

   izeta = 1
                 lambda =    1.000000
                     rc =    6.655955
                 energy =   -0.659921
                kinetic =    4.410674
    potential(screened) =   -5.070596
       potential(ionic) =  -12.498772

   izeta = 2
                 rmatch =    3.066256
              splitnorm =    0.127283
                 energy =   -0.537509
                kinetic =    6.271972
    potential(screened) =   -6.809481
       potential(ionic) =  -15.130217

SPLIT: Orbitals with angular momentum L= 2

SPLIT: Basis orbitals for state 3d

   izeta = 1
                 lambda =    1.000000
                     rc =    6.997229
                 energy =    0.764795
                kinetic =    1.136799
    potential(screened) =   -0.372004
       potential(ionic) =   -3.984199
atom: Total number of Sankey-type orbitals: 13

atm_pop: Valence configuration (for local Pseudopot. screening):
 2s( 2.00)                                                            
 2p( 4.00)                                                            
 3d( 0.00)                                                            
Vna: chval, zval:    6.00000   6.00000

Vna:  Cut-off radius for the neutral-atom potential:   7.356000
comcore: Pseudo-core radius Rcore=  1.377587

atom: _________________________________________________________________________

<basis_specs>
===============================================================================
H                    Z=   1    Mass=  1.0100        Charge= 0.22000    
Lmxo=1 Lmxkb= 2    BasisType=split      Semic=F
L=0  Nsemic=0  Cnfigmx=1
          n=1  nzeta=2  polorb=0
            splnorm:   0.15000    
               vcte:    2.0700    
               rinn:    0.0000    
               qcoe:    0.0000    
               qyuk:    0.0000    
               qwid:   0.10000E-01
                rcs:    4.9710      1.7710    
            lambdas:    1.0000      1.0000    
L=1  Nsemic=0  Cnfigmx=2
          n=1  nzeta=1  polorb=0
            splnorm:   0.15000    
               vcte:   0.89000    
               rinn:   0.10000E-01
               qcoe:    0.0000    
               qyuk:    0.0000    
               qwid:   0.10000E-01
                rcs:    4.9880    
            lambdas:    1.0000    
-------------------------------------------------------------------------------
L=0  Nkbl=1  erefs: 0.17977+309
L=1  Nkbl=1  erefs: 0.17977+309
L=2  Nkbl=1  erefs: 0.17977+309
===============================================================================
</basis_specs>

atom: Called for H                     (Z =   1)

read_vps: Pseudopotential generation method:
read_vps: ATM3      Troullier-Martins                       
Total valence charge:    1.00000

xc_check: Exchange-correlation functional:
xc_check: GGA Perdew, Burke & Ernzerhof 1996
V l=0 = -2*Zval/r beyond r=  1.2343
V l=1 = -2*Zval/r beyond r=  1.2189
V l=2 = -2*Zval/r beyond r=  1.2189
All V_l potentials equal beyond r=  1.2343
This should be close to max(r_c) in ps generation
All pots = -2*Zval/r beyond r=  1.2343

VLOCAL1: 99.0% of the norm of Vloc inside     28.493 Ry
VLOCAL1: 99.9% of the norm of Vloc inside     64.935 Ry
atom: Maximum radius for 4*pi*r*r*local-pseudopot. charge    1.45251
atom: Maximum radius for r*vlocal+2*Zval:    1.21892
GHOST: No ghost state for L =  0
GHOST: No ghost state for L =  1
GHOST: No ghost state for L =  2

KBgen: Kleinman-Bylander projectors: 
   l= 0   rc=  1.364359   el= -0.477200   Ekb= -2.021939   kbcos= -0.344793
   l= 1   rc=  1.434438   el=  0.001076   Ekb= -0.443447   kbcos= -0.022843
   l= 2   rc=  1.470814   el=  0.002010   Ekb= -0.140543   kbcos= -0.002863

KBgen: Total number of  Kleinman-Bylander projectors:    9
atom: -------------------------------------------------------------------------

atom: SANKEY-TYPE ORBITALS:
atom: Selected multiple-zeta basis: split     

atom: basis set generated (by rescaling the valence charge)
atom: for a cation of charge   0.2200

SPLIT: Orbitals with angular momentum L= 0

SPLIT: Basis orbitals for state 1s

   izeta = 1
                 lambda =    1.000000
                     rc =    4.950554
                 energy =   -0.678603
                kinetic =    1.118239
    potential(screened) =   -1.796842
       potential(ionic) =   -2.106311

   izeta = 2
                 rmatch =    1.774652
              splitnorm =    0.672347
                 energy =    1.027037
                kinetic =    4.730146
    potential(screened) =   -3.703109
       potential(ionic) =   -3.968059

SPLIT: Orbitals with angular momentum L= 1

SPLIT: Basis orbitals for state 2p

   izeta = 1
                 lambda =    1.000000
                     rc =    5.075940
                 energy =    0.310352
                kinetic =    0.887169
    potential(screened) =   -0.576817
       potential(ionic) =   -0.872649
atom: Total number of Sankey-type orbitals:  5

atm_pop: Valence configuration (for local Pseudopot. screening):
 1s( 1.00)                                                            
 2p( 0.00)                                                            
Vna: chval, zval:    1.00000   1.00000

Vna:  Cut-off radius for the neutral-atom potential:   4.950554

atom: _________________________________________________________________________

prinput: Basis input ----------------------------------------------------------

PAO.BasisType split     

%block ChemicalSpeciesLabel
    1    8 O                       # Species index, atomic number, species label
    2    1 H                       # Species index, atomic number, species label
%endblock ChemicalSpeciesLabel

%block PAO.Basis                 # Define Basis set
O                     3  -0.185            # Label, l-shells, ionic net charge
 n=2   0   2                         # n, l, Nzeta 
   7.356      4.690   
   1.000      1.000   
 n=2   1   2                         # n, l, Nzeta 
   6.656      3.066   
   1.000      1.000   
 n=3   2   1                         # n, l, Nzeta 
   6.997   
   1.000   
H                     2   0.220            # Label, l-shells, ionic net charge
 n=1   0   2                         # n, l, Nzeta 
   4.951      1.775   
   1.000      1.000   
 n=2   1   1                         # n, l, Nzeta 
   5.076   
   1.000   
%endblock PAO.Basis

prinput: ----------------------------------------------------------------------

Dumping basis to NetCDF file O.ion.nc
Dumping basis to NetCDF file H.ion.nc
coor:   Atomic-coordinates input format  =     Cartesian coordinates
coor:                                          (in Angstroms)

ioxv: Reading coordinates and velocities from file
! Info in XV file prevails over previous structure input
WARNING: xoc.VERLET_RESTART not found--reading only XV file and moving back 1 time step using Euler

siesta: Atomic coordinates (Bohr) and species
siesta:      2.55173  -0.00835   0.00075  1        1
siesta:      5.00720   0.00631  -0.00217  1        2
siesta:     12.74171  -0.00050  -0.01417  2        3
siesta:     14.12922   0.03291   0.03677  2        4

siesta: System type = chain     

initatomlists: Number of atoms, orbitals, and projectors:      4    36    50

siesta: ******************** Simulation parameters ****************************
siesta:
siesta: The following are some of the parameters of the simulation.
siesta: A complete list of the parameters used, including default values,
siesta: can be found in file out.fdf
siesta:
redata: Spin configuration                          = none
redata: Number of spin components                   = 1
redata: Time-Reversal Symmetry                      = T
redata: Spin-spiral                                 = F
redata: Long output                                 =   F
redata: Number of Atomic Species                    =        2
redata: Charge density info will appear in .RHO file
redata: Write Mulliken Pop.                         = NO
redata: Mesh Cutoff                                 =   200.0000 Ry
redata: Net charge of the system                    =     0.0000 |e|
redata: Min. number of SCF Iter                     =        0
redata: Max. number of SCF Iter                     =      150
redata: SCF mix quantity                            = Hamiltonian
redata: Mix DM or H after convergence               =   F
redata: Recompute H after scf cycle                 =   F
redata: Mix DM in first SCF step                    =   T
redata: Write Pulay info on disk                    =   F
redata: New DM Mixing Weight                        =     0.0200
redata: New DM Occupancy tolerance                  = 0.000000000001
redata: No kicks to SCF
redata: DM Mixing Weight for Kicks                  =     0.5000
redata: Require Harris convergence for SCF          =   F
redata: Harris energy tolerance for SCF             =     0.000100 eV
redata: Require DM convergence for SCF              =   T
redata: DM tolerance for SCF                        =     0.0003
redata: Require EDM convergence for SCF             =   F
redata: EDM tolerance for SCF                       =     0.001000 eV
redata: Require H convergence for SCF               =   T
redata: Hamiltonian tolerance for SCF               =     0.001000 eV
redata: Require (free) Energy convergence for SCF   =   F
redata: (free) Energy tolerance for SCF             =     0.000100 eV
redata: Using Saved Data (generic)                  =   T
redata: Use continuation files for DM               =   T
redata: Neglect nonoverlap interactions             =   F
redata: Method of Calculation                       = Diagonalization
redata: Divide and Conquer                          =   T
redata: Electronic Temperature                      =   290.1109 K
redata: Fix the spin of the system                  =   F
redata: Dynamics option                             = Verlet MD run
redata: Initial MD time step                        =        1
redata:   Final MD time step                        =      200
redata: Length of MD time step                      =     0.5000 fs
redata: Initial Temperature of MD run               =     0.0000 K
redata: Perform a MD quench                         =   F
mix.SCF: Pulay mixing                            = Pulay
mix.SCF:    Variant                              = stable
mix.SCF:    History steps                        = 6
mix.SCF:    Linear mixing weight                 =     0.020000
mix.SCF:    Mixing weight                        =     0.020000
mix.SCF:    SVD condition                        = 0.1000E-07
redata: Save all siesta data in one NC              =   F
redata: ***********************************************************************

%block SCF.Mixers
  Pulay                   
%endblock SCF.Mixers

%block SCF.Mixer.Pulay
  # Mixing method
  method pulay
  variant stable

  # Mixing options
  weight 0.0200
  weight.linear 0.0200
  history 6
  restart 0
  restart.save 1

  # Continuation options
%endblock SCF.Mixer.Pulay

Size of DM history Fstack: 1
Total number of electrons:    14.000000
Total ionic charge:    14.000000

* ProcessorY, Blocksize:    2   4


* Orbital distribution balance (max,min):     8     4

 Kpoints in:            1 . Kpoints trimmed:            1

siesta: k-grid: Number of k-points =     1
siesta: k-grid: Cutoff (effective) =     5.000 Ang
siesta: k-grid: Supercell and displacements
siesta: k-grid:    1   0   0      0.000
siesta: k-grid:    0   1   0      0.000
siesta: k-grid:    0   0   1      0.000


                     ====================================
                        Begin MD step =      1
                     ====================================

outcell: Unit cell vectors (Ang):
       10.000000    0.000000    0.000000
        0.000000   10.000000    0.000000
        0.000000    0.000000   10.000000

outcell: Cell vector modules (Ang)   :   10.000000   10.000000   10.000000
outcell: Cell angles (23,13,12) (deg):     90.0000     90.0000     90.0000
outcell: Cell volume (Ang**3)        :   1000.0000
 Folding of H and S is implicitly performed
<dSpData1D:S at geom step 1
  <sparsity:sparsity for geom step 1
    nrows_g=36 nrows=8 sparsity=.2076 nnzs=269, refcount: 7>
  <dData1D:(new from dSpData1D) n=269, refcount: 1>
refcount: 1>
New_DM. Step:     1
Initializing Density Matrix...
Attempting to read DM from file... Failed...
DM after filling with atomic data:
<dSpData2D:(DM initialized from atoms)
  <sparsity:sparsity for geom step 1
    nrows_g=36 nrows=8 sparsity=.2076 nnzs=269, refcount: 8>
  <dData2D:(DMatomic) n=269 m=1, refcount: 1>
refcount: 1>
No. of atoms with KB's overlaping orbs in proc 0. Max # of overlaps:       4      26
New grid distribution:   1
           1       1:   45    1:   23    1:   12
           2       1:   45    1:   23   13:   23
           3       1:   45    1:   23   24:   34
           4       1:   45    1:   23   35:   45
           5       1:   45   24:   45    1:   12
           6       1:   45   24:   45   13:   23
           7       1:   45   24:   45   24:   34
           8       1:   45   24:   45   35:   45

InitMesh: MESH =    90 x    90 x    90 =      729000
InitMesh: (bp) =    45 x    45 x    45 =       91125
InitMesh: Mesh cutoff (required, used) =   200.000   223.865 Ry
ExtMesh (bp) on 0 =   117 x    95 x    84 =      933660
New grid distribution:   2
           1      14:   45    1:   14    1:   14
           2       1:   13    1:   14   15:   45
           3      14:   45    1:   14   15:   45
           4       1:   13   15:   45   15:   45
           5      14:   45   15:   45    1:   14
           6       1:   13   15:   45    1:   14
           7      14:   45   15:   45   15:   45
           8       1:   13    1:   14    1:   14
New grid distribution:   3
           1      19:   45    1:   16    1:   16
           2       1:   17    1:   16   17:   45
           3       1:   17   17:   45   17:   45
           4      18:   45    1:   16   17:   45
           5      18:   45   17:   45    1:   16
           6       1:   17   17:   45    1:   16
           7      18:   45   17:   45   17:   45
           8       1:   18    1:   16    1:   16
Setting up quadratic distribution...
ExtMesh (bp) on 0 =   104 x    86 x    86 =      769184
PhiOnMesh: Number of (b)points on node 0 =                 6272
PhiOnMesh: nlist on node 0 =                62575

stepf: Fermi-Dirac step function

siesta: Program's energy decomposition (eV):
siesta: Ebs     =      -191.123468
siesta: Eions   =      1592.294315
siesta: Ena     =       380.196396
siesta: Ekin    =       664.142897
siesta: Enl     =      -100.597526
siesta: Eso     =         0.000000
siesta: Eldau   =         0.000000
siesta: DEna    =       -43.317991
siesta: DUscf   =         3.040392
siesta: DUext   =         0.000000
siesta: Exc     =      -211.078595
siesta: eta*DQ  =         0.000000
siesta: Emadel  =         0.000000
siesta: Emeta   =         0.000000
siesta: Emolmec =         0.000000
siesta: Ekinion =         0.000000
siesta: Eharris =      -900.536547
siesta: Etot    =      -899.908742
siesta: FreeEng =      -899.978056

        iscf     Eharris(eV)        E_KS(eV)     FreeEng(eV)     dDmax    Ef(eV) dHmax(eV)
   scf:    1     -900.536547     -899.908742     -899.978056  3.350044 -9.424959  4.742544
timer: Routine,Calls,Time,% = IterSCF        1       0.669  30.91
   scf:    2     -899.991440     -899.950218     -900.019532  0.063068 -9.334516  4.583540
   scf:    3     -900.971046     -900.589579     -900.658894  2.481801 -6.756070  0.590123
   scf:    4     -900.022753     -900.356550     -900.425865  1.932699 -5.399019  3.283039
   scf:    5     -900.715888     -900.600595     -900.669910  1.798127 -6.907736  0.204595
   scf:    6     -900.601534     -900.601089     -900.670404  0.034509 -6.875555  0.137006
   scf:    7     -900.597283     -900.599379     -900.668692  0.104117 -6.954419  0.310971
   scf:    8     -900.602624     -900.601248     -900.670561  0.091786 -6.862473  0.114279
   scf:    9     -900.601650     -900.601467     -900.670781  0.023079 -6.835623  0.057426
   scf:   10     -900.601550     -900.601542     -900.670857  0.029688 -6.803963  0.019779
   scf:   11     -900.601551     -900.601548     -900.670863  0.007537 -6.811552  0.002906
   scf:   12     -900.601548     -900.601548     -900.670863  0.000109 -6.811484  0.002979
   scf:   13     -900.601548     -900.601548     -900.670863  0.000238 -6.811339  0.003011
   scf:   14     -900.601548     -900.601548     -900.670863  0.000071 -6.811237  0.003000
   scf:   15     -900.601549     -900.601549     -900.670863  0.001111 -6.810817  0.001162
   scf:   16     -900.601549     -900.601549     -900.670863  0.000055 -6.810791  0.001138
   scf:   17     -900.601548     -900.601548     -900.670863  0.000461 -6.810570  0.000989
   scf:   18     -900.601549     -900.601549     -900.670863  0.000385 -6.810050  0.000388
   scf:   19     -900.601549     -900.601549     -900.670863  0.000011 -6.810052  0.000367

SCF Convergence by DM+H criterion
max |DM_out - DM_in|         :     0.0000114667
max |H_out - H_in|      (eV) :     0.0003673461
SCF cycle converged after 19 iterations

Using DM_out to compute the final energy and forces
No. of atoms with KB's overlaping orbs in proc 0. Max # of overlaps:       4      26

siesta: E_KS(eV) =             -900.6015

siesta: E_KS - E_eggbox =      -900.6015

siesta: Atomic forces (eV/Ang):
----------------------------------------
   Tot    0.000181    0.000580    0.000448
----------------------------------------
   Max    0.273940
   Res    0.154450    sqrt( Sum f_i^2 / 3N )
----------------------------------------
   Max    0.273940    constrained

Stress-tensor-Voigt (kbar):      -17.02       -0.42       -0.25        0.25       -0.10        0.04
(Free)E + p*V (eV/cell)     -896.9921
Target enthalpy (eV/cell)     -900.6709

siesta: Stress tensor (static) (eV/Ang**3):
        -0.000424   -0.000007   -0.000007
        -0.000007    0.000006   -0.000000
        -0.000007   -0.000000    0.000006

siesta: Pressure (static):          0.22058179  kBar

siesta: Stress tensor (total) (eV/Ang**3):
        -0.010622    0.000157    0.000022
         0.000157   -0.000259   -0.000060
         0.000022   -0.000060   -0.000154

siesta: Pressure (total):          5.89405659  kBar

siesta: Temp_ion =   13797.487 K

                     ====================================
                        Begin MD step =      2
                     ====================================

outcell: Unit cell vectors (Ang):
       10.000000    0.000000    0.000000
        0.000000   10.000000    0.000000
        0.000000    0.000000   10.000000

outcell: Cell vector modules (Ang)   :   10.000000   10.000000   10.000000
outcell: Cell angles (23,13,12) (deg):     90.0000     90.0000     90.0000
outcell: Cell volume (Ang**3)        :   1000.0000
 Folding of H and S is implicitly performed
<dSpData1D:S at geom step 2
  <sparsity:sparsity for geom step 2
    nrows_g=36 nrows=8 sparsity=.2076 nnzs=269, refcount: 7>
  <dData1D:(new from dSpData1D) n=269, refcount: 1>
refcount: 1>
New_DM. Step:     2
Re-using DM from previous geometries...
N DMs in history: 1
 DM extrapolation coefficients: 
1   1.00000
New DM after history re-use:
<dSpData2D:SpM extrapolated using coords
  <sparsity:sparsity for geom step 2
    nrows_g=36 nrows=8 sparsity=.2076 nnzs=269, refcount: 8>
  <dData2D:(temp array for extrapolation) n=269 m=1, refcount: 1>
refcount: 1>
No. of atoms with KB's overlaping orbs in proc 0. Max # of overlaps:       4      26
New grid distribution:   1
           1       1:   45    1:   23    1:   12
           2       1:   45    1:   23   13:   23
           3       1:   45    1:   23   24:   34
           4       1:   45    1:   23   35:   45
           5       1:   45   24:   45    1:   12
           6       1:   45   24:   45   13:   23
           7       1:   45   24:   45   24:   34
           8       1:   45   24:   45   35:   45

InitMesh: MESH =    90 x    90 x    90 =      729000
InitMesh: (bp) =    45 x    45 x    45 =       91125
InitMesh: Mesh cutoff (required, used) =   200.000   223.865 Ry
ExtMesh (bp) on 0 =   117 x    95 x    84 =      933660
New grid distribution:   2
           1      14:   45    1:   14    1:   14
           2       1:   13    1:   14   15:   45
           3      14:   45    1:   14   15:   45
           4       1:   13   15:   45   15:   45
           5      14:   45   15:   45    1:   14
           6       1:   13   15:   45    1:   14
           7      14:   45   15:   45   15:   45
           8       1:   13    1:   14    1:   14
New grid distribution:   3
           1      19:   45    1:   16    1:   16
           2       1:   17    1:   16   17:   45
           3       1:   17   17:   45   17:   45
           4      18:   45    1:   16   17:   45
           5      18:   45   17:   45    1:   16
           6       1:   17   17:   45    1:   16
           7      18:   45   17:   45   17:   45
           8       1:   18    1:   16    1:   16
Setting up quadratic distribution...
ExtMesh (bp) on 0 =   104 x    86 x    86 =      769184
PhiOnMesh: Number of (b)points on node 0 =                 6272
PhiOnMesh: nlist on node 0 =                62639

        iscf     Eharris(eV)        E_KS(eV)     FreeEng(eV)     dDmax    Ef(eV) dHmax(eV)
   scf:    1     -900.527812     -900.596685     -900.665999  0.101535 -6.823124  0.072073
   scf:    2     -900.596706     -900.596695     -900.666010  0.001736 -6.821820  0.069296
   scf:    3     -900.596886     -900.596828     -900.666142  0.050048 -6.784480  0.011742
   scf:    4     -900.596798     -900.596837     -900.666151  0.006007 -6.783460  0.008083
   scf:    5     -900.596829     -900.596845     -900.666160  0.004421 -6.781729  0.007005
   scf:    6     -900.596815     -900.596834     -900.666149  0.012671 -6.772119  0.027225
   scf:    7     -900.596851     -900.596848     -900.666163  0.016669 -6.785458  0.008268
   scf:    8     -900.596850     -900.596850     -900.666164  0.002488 -6.782479  0.001114
   scf:    9     -900.596850     -900.596850     -900.666164  0.000590 -6.781973  0.000068
   scf:   10     -900.596850     -900.596850     -900.666164  0.000018 -6.781972  0.000050

SCF Convergence by DM+H criterion
max |DM_out - DM_in|         :     0.0000180109
max |H_out - H_in|      (eV) :     0.0000504267
SCF cycle converged after 10 iterations

Using DM_out to compute the final energy and forces
No. of atoms with KB's overlaping orbs in proc 0. Max # of overlaps:       4      26

siesta: E_KS(eV) =             -900.5968

siesta: Atomic forces (eV/Ang):
----------------------------------------
   Tot    0.000499    0.000538    0.000308
----------------------------------------
   Max    0.545925
   Res    0.302195    sqrt( Sum f_i^2 / 3N )
----------------------------------------
   Max    0.545925    constrained

Stress-tensor-Voigt (kbar):      -17.85       -0.42       -0.25        0.22       -0.10        0.01
(Free)E + p*V (eV/cell)     -896.8134
Target enthalpy (eV/cell)     -900.6662

siesta: Stress tensor (static) (eV/Ang**3):
        -0.000944   -0.000026   -0.000025
        -0.000026    0.000005   -0.000001
        -0.000025   -0.000001    0.000004

siesta: Pressure (static):          0.49940129  kBar

siesta: Stress tensor (total) (eV/Ang**3):
        -0.011142    0.000137    0.000004
         0.000137   -0.000260   -0.000061
         0.000004   -0.000061   -0.000156

siesta: Pressure (total):          6.17287609  kBar

siesta: Temp_ion =   13785.801 K

                     ====================================
                        Begin MD step =      3
                     ====================================

outcell: Unit cell vectors (Ang):
       10.000000    0.000000    0.000000
        0.000000   10.000000    0.000000
        0.000000    0.000000   10.000000

outcell: Cell vector modules (Ang)   :   10.000000   10.000000   10.000000
outcell: Cell angles (23,13,12) (deg):     90.0000     90.0000     90.0000
outcell: Cell volume (Ang**3)        :   1000.0000
 Folding of H and S is implicitly performed
<dSpData1D:S at geom step 3
  <sparsity:sparsity for geom step 3
    nrows_g=36 nrows=8 sparsity=.2076 nnzs=269, refcount: 7>
  <dData1D:(new from dSpData1D) n=269, refcount: 1>
refcount: 1>
New_DM. Step:     3
Re-using DM from previous geometries...
N DMs in history: 1
 DM extrapolation coefficients: 
1   1.00000
New DM after history re-use:
<dSpData2D:SpM extrapolated using coords
  <sparsity:sparsity for geom step 3
    nrows_g=36 nrows=8 sparsity=.2076 nnzs=269, refcount: 8>
  <dData2D:(temp array for extrapolation) n=269 m=1, refcount: 1>
refcount: 1>
No. of atoms with KB's overlaping orbs in proc 0. Max # of overlaps:       4      26
New grid distribution:   1
           1       1:   45    1:   23    1:   12
           2       1:   45    1:   23   13:   23
           3       1:   45    1:   23   24:   34
           4       1:   45    1:   23   35:   45
           5       1:   45   24:   45    1:   12
           6       1:   45   24:   45   13:   23
           7       1:   45   24:   45   24:   34
           8       1:   45   24:   45   35:   45

InitMesh: MESH =    90 x    90 x    90 =      729000
InitMesh: (bp) =    45 x    45 x    45 =       91125
InitMesh: Mesh cutoff (required, used) =   200.000   223.865 Ry
ExtMesh (bp) on 0 =   117 x    95 x    84 =      933660
New grid distribution:   2
           1      15:   45    1:   14    1:   14
           2       1:   13    1:   14   15:   45
           3      14:   45    1:   14   15:   45
           4       1:   13   15:   45   15:   45
           5      14:   45   15:   45    1:   14
           6       1:   13   15:   45    1:   14
           7      14:   45   15:   45   15:   45
           8       1:   14    1:   14    1:   14
New grid distribution:   3
           1      19:   45    1:   16    1:   16
           2       1:   17    1:   16   17:   45
           3       1:   16   17:   45   17:   45
           4      18:   45    1:   16   17:   45
           5      18:   45   17:   45    1:   16
           6       1:   17   17:   45    1:   16
           7      17:   45   17:   45   17:   45
           8       1:   18    1:   16    1:   16
Setting up quadratic distribution...
ExtMesh (bp) on 0 =   103 x    86 x    86 =      761788
PhiOnMesh: Number of (b)points on node 0 =                 6076
PhiOnMesh: nlist on node 0 =                58983

        iscf     Eharris(eV)        E_KS(eV)     FreeEng(eV)     dDmax    Ef(eV) dHmax(eV)
   scf:    1     -900.513024     -900.592669     -900.661984  0.121767 -6.770458  0.034651
   scf:    2     -900.592680     -900.592674     -900.661989  0.001153 -6.769974  0.033669
   scf:    3     -900.592756     -900.592737     -900.662050  0.032628 -6.756317  0.010416
   scf:    4     -900.592709     -900.592748     -900.662062  0.005752 -6.754614  0.004544
   scf:    5     -900.592756     -900.592759     -900.662073  0.002946 -6.754444  0.003327
   scf:    6     -900.592757     -900.592758     -900.662073  0.002262 -6.755689  0.003032
   scf:    7     -900.592759     -900.592759     -900.662074  0.002861 -6.754999  0.000502
   scf:    8     -900.592759     -900.592759     -900.662074  0.000389 -6.754911  0.000136
   scf:    9     -900.592759     -900.592759     -900.662074  0.000023 -6.754902  0.000115

SCF Convergence by DM+H criterion
max |DM_out - DM_in|         :     0.0000229066
max |H_out - H_in|      (eV) :     0.0001147623
SCF cycle converged after 9 iterations

Using DM_out to compute the final energy and forces
No. of atoms with KB's overlaping orbs in proc 0. Max # of overlaps:       4      26

siesta: E_KS(eV) =             -900.5928

siesta: Atomic forces (eV/Ang):
----------------------------------------
   Tot    0.000513    0.000154   -0.000082
----------------------------------------
   Max    0.819135
   Res    0.413587    sqrt( Sum f_i^2 / 3N )
----------------------------------------
   Max    0.819135    constrained

Stress-tensor-Voigt (kbar):      -18.50       -0.42       -0.26        0.17       -0.10       -0.04
(Free)E + p*V (eV/cell)     -896.6727
Target enthalpy (eV/cell)     -900.6621

siesta: Stress tensor (static) (eV/Ang**3):
        -0.001357   -0.000051   -0.000044
        -0.000051    0.000003   -0.000003
        -0.000044   -0.000003    0.000001

siesta: Pressure (static):          0.72310877  kBar

siesta: Stress tensor (total) (eV/Ang**3):
        -0.011544    0.000103   -0.000025
         0.000103   -0.000263   -0.000064
        -0.000025   -0.000064   -0.000161

siesta: Pressure (total):          6.39177862  kBar

siesta: Temp_ion =   13775.422 K

                     ====================================
                        Begin MD step =      4
                     ====================================

outcell: Unit cell vectors (Ang):
       10.000000    0.000000    0.000000
        0.000000   10.000000    0.000000
        0.000000    0.000000   10.000000

outcell: Cell vector modules (Ang)   :   10.000000   10.000000   10.000000
outcell: Cell angles (23,13,12) (deg):     90.0000     90.0000     90.0000
outcell: Cell volume (Ang**3)        :   1000.0000
 Folding of H and S is implicitly performed
<dSpData1D:S at geom step 4
  <sparsity:sparsity for geom step 4
    nrows_g=36 nrows=8 sparsity=.2076 nnzs=269, refcount: 7>
  <dData1D:(new from dSpData1D) n=269, refcount: 1>
refcount: 1>
New_DM. Step:     4
Re-using DM from previous geometries...
N DMs in history: 1
 DM extrapolation coefficients: 
1   1.00000
New DM after history re-use:
<dSpData2D:SpM extrapolated using coords
  <sparsity:sparsity for geom step 4
    nrows_g=36 nrows=8 sparsity=.2076 nnzs=269, refcount: 8>
  <dData2D:(temp array for extrapolation) n=269 m=1, refcount: 1>
refcount: 1>
No. of atoms with KB's overlaping orbs in proc 0. Max # of overlaps:       4      29
New grid distribution:   1
           1       1:   45    1:   23    1:   12
           2       1:   45    1:   23   13:   23
           3       1:   45    1:   23   24:   34
           4       1:   45    1:   23   35:   45
           5       1:   45   24:   45    1:   12
           6       1:   45   24:   45   13:   23
           7       1:   45   24:   45   24:   34
           8       1:   45   24:   45   35:   45

InitMesh: MESH =    90 x    90 x    90 =      729000
InitMesh: (bp) =    45 x    45 x    45 =       91125
InitMesh: Mesh cutoff (required, used) =   200.000   223.865 Ry
ExtMesh (bp) on 0 =   117 x    95 x    84 =      933660
New grid distribution:   2
           1      15:   45    1:   14    1:   14
           2       1:   13    1:   14   15:   45
           3      14:   45    1:   14   15:   45
           4       1:   13   15:   45   15:   45
           5      14:   45   15:   45    1:   14
           6       1:   13   15:   45    1:   14
           7      14:   45   15:   45   15:   45
           8       1:   14    1:   14    1:   14
New grid distribution:   3
           1      19:   45    1:   16    1:   16
           2       1:   17    1:   16   17:   45
           3       1:   16   17:   45   17:   45
           4      18:   45    1:   16   17:   45
           5      18:   45   17:   45    1:   16
           6       1:   17   17:   45    1:   16
           7      17:   45   17:   45   17:   45
           8       1:   18    1:   16    1:   16
Setting up quadratic distribution...
ExtMesh (bp) on 0 =   103 x    86 x    86 =      761788
PhiOnMesh: Number of (b)points on node 0 =                 6076
PhiOnMesh: nlist on node 0 =                59040

        iscf     Eharris(eV)        E_KS(eV)     FreeEng(eV)     dDmax    Ef(eV) dHmax(eV)
   scf:    1     -900.500373     -900.590783     -900.660098  0.143827 -6.716030  0.038208
   scf:    2     -900.590795     -900.590789     -900.660104  0.000568 -6.716470  0.037058
   scf:    3     -900.590746     -900.590814     -900.660125  0.016052 -6.728855  0.016159
   scf:    4     -900.590787     -900.590857     -900.660170  0.009334 -6.729858  0.008561
   scf:    5     -900.590868     -900.590871     -900.660185  0.003531 -6.729910  0.003025
   scf:    6     -900.590868     -900.590870     -900.660185  0.001198 -6.729118  0.002556
   scf:    7     -900.590871     -900.590871     -900.660186  0.002560 -6.729205  0.000618
   scf:    8     -900.590871     -900.590871     -900.660186  0.000493 -6.729293  0.000187
   scf:    9     -900.590871     -900.590871     -900.660186  0.000046 -6.729291  0.000143

SCF Convergence by DM+H criterion
max |DM_out - DM_in|         :     0.0000460980
max |H_out - H_in|      (eV) :     0.0001425781
SCF cycle converged after 9 iterations

Using DM_out to compute the final energy and forces
No. of atoms with KB's overlaping orbs in proc 0. Max # of overlaps:       4      29

siesta: E_KS(eV) =             -900.5909

siesta: Atomic forces (eV/Ang):
----------------------------------------
   Tot    0.000471    0.000126   -0.000090
----------------------------------------
   Max    1.080631
   Res    0.491046    sqrt( Sum f_i^2 / 3N )
----------------------------------------
   Max    1.080631    constrained

Stress-tensor-Voigt (kbar):      -18.93       -0.43       -0.27        0.11       -0.11       -0.07
(Free)E + p*V (eV/cell)     -896.5765
Target enthalpy (eV/cell)     -900.6602

siesta: Stress tensor (static) (eV/Ang**3):
        -0.001643   -0.000071   -0.000051
        -0.000071    0.000000   -0.000005
        -0.000051   -0.000005   -0.000002

siesta: Pressure (static):          0.87848814  kBar

siesta: Stress tensor (total) (eV/Ang**3):
        -0.011818    0.000068   -0.000044
         0.000068   -0.000267   -0.000068
        -0.000044   -0.000068   -0.000166

siesta: Pressure (total):          6.54288996  kBar

siesta: Temp_ion =   13770.303 K

                     ====================================
                        Begin MD step =      5
                     ====================================

outcell: Unit cell vectors (Ang):
       10.000000    0.000000    0.000000
        0.000000   10.000000    0.000000
        0.000000    0.000000   10.000000

outcell: Cell vector modules (Ang)   :   10.000000   10.000000   10.000000
outcell: Cell angles (23,13,12) (deg):     90.0000     90.0000     90.0000
outcell: Cell volume (Ang**3)        :   1000.0000
 Folding of H and S is implicitly performed
<dSpData1D:S at geom step 5
  <sparsity:sparsity for geom step 5
    nrows_g=36 nrows=8 sparsity=.1991 nnzs=258, refcount: 7>
  <dData1D:(new from dSpData1D) n=258, refcount: 1>
refcount: 1>
New_DM. Step:     5
Re-using DM from previous geometries...
N DMs in history: 1
 DM extrapolation coefficients: 
1   1.00000
New DM after history re-use:
<dSpData2D:SpM extrapolated using coords
  <sparsity:sparsity for geom step 5
    nrows_g=36 nrows=8 sparsity=.1991 nnzs=258, refcount: 8>
  <dData2D:(temp array for extrapolation) n=258 m=1, refcount: 1>
refcount: 1>
No. of atoms with KB's overlaping orbs in proc 0. Max # of overlaps:       4      30
New grid distribution:   1
           1       1:   45    1:   23    1:   12
           2       1:   45    1:   23   13:   23
           3       1:   45    1:   23   24:   34
           4       1:   45    1:   23   35:   45
           5       1:   45   24:   45    1:   12
           6       1:   45   24:   45   13:   23
           7       1:   45   24:   45   24:   34
           8       1:   45   24:   45   35:   45

InitMesh: MESH =    90 x    90 x    90 =      729000
InitMesh: (bp) =    45 x    45 x    45 =       91125
InitMesh: Mesh cutoff (required, used) =   200.000   223.865 Ry
ExtMesh (bp) on 0 =   117 x    95 x    84 =      933660
New grid distribution:   2
           1      15:   45    1:   14    1:   14
           2       1:   13    1:   14   15:   45
           3      14:   45    1:   14   15:   45
           4       1:   13   15:   45   15:   45
           5      14:   45   15:   45    1:   14
           6       1:   13   15:   45    1:   14
           7      14:   45   15:   45   15:   45
           8       1:   14    1:   14    1:   14
New grid distribution:   3
           1      19:   45    1:   16    1:   16
           2       1:   17    1:   16   17:   45
           3       1:   16   17:   45   17:   45
           4      18:   45    1:   16   17:   45
           5      18:   45   17:   45    1:   16
           6       1:   17   17:   45    1:   16
           7      17:   45   17:   45   17:   45
           8       1:   18    1:   16    1:   16
Setting up quadratic distribution...
ExtMesh (bp) on 0 =   103 x    86 x    86 =      761788
PhiOnMesh: Number of (b)points on node 0 =                 6076
PhiOnMesh: nlist on node 0 =                59016

        iscf     Eharris(eV)        E_KS(eV)     FreeEng(eV)     dDmax    Ef(eV) dHmax(eV)
   scf:    1     -900.491973     -900.590386     -900.659700  0.169741 -6.665813  0.084050
   scf:    2     -900.590411     -900.590399     -900.659713  0.000455 -6.667113  0.080691
   scf:    3     -900.590258     -900.590435     -900.659741  0.009966 -6.703698  0.016977
   scf:    4     -900.590391     -900.590525     -900.659837  0.012665 -6.705374  0.010148
   scf:    5     -900.590543     -900.590549     -900.659864  0.004599 -6.705438  0.008113
   scf:    6     -900.590529     -900.590544     -900.659858  0.002578 -6.707042  0.007498
   scf:    7     -900.590548     -900.590551     -900.659865  0.003808 -6.705166  0.001326
   scf:    8     -900.590551     -900.590551     -900.659865  0.001039 -6.705885  0.000436
   scf:    9     -900.590551     -900.590551     -900.659866  0.000058 -6.705862  0.000249

SCF Convergence by DM+H criterion
max |DM_out - DM_in|         :     0.0000581406
max |H_out - H_in|      (eV) :     0.0002485411
SCF cycle converged after 9 iterations

Using DM_out to compute the final energy and forces
No. of atoms with KB's overlaping orbs in proc 0. Max # of overlaps:       4      30

siesta: E_KS(eV) =             -900.5906

siesta: Atomic forces (eV/Ang):
----------------------------------------
   Tot    0.000373   -0.000098   -0.000209
----------------------------------------
   Max    1.323741
   Res    0.554148    sqrt( Sum f_i^2 / 3N )
----------------------------------------
   Max    1.323741    constrained

Stress-tensor-Voigt (kbar):      -19.18       -0.43       -0.27        0.07       -0.11       -0.07
(Free)E + p*V (eV/cell)     -896.5232
Target enthalpy (eV/cell)     -900.6599

siesta: Stress tensor (static) (eV/Ang**3):
        -0.001805   -0.000080   -0.000034
        -0.000080   -0.000001   -0.000005
        -0.000034   -0.000005   -0.000002

siesta: Pressure (static):          0.96551667  kBar

siesta: Stress tensor (total) (eV/Ang**3):
        -0.011970    0.000042   -0.000041
         0.000042   -0.000270   -0.000070
        -0.000041   -0.000070   -0.000170

siesta: Pressure (total):          6.62781379  kBar

siesta: Temp_ion =   13768.947 K

                     ====================================
                        Begin MD step =      6
                     ====================================

outcell: Unit cell vectors (Ang):
       10.000000    0.000000    0.000000
        0.000000   10.000000    0.000000
        0.000000    0.000000   10.000000

outcell: Cell vector modules (Ang)   :   10.000000   10.000000   10.000000
outcell: Cell angles (23,13,12) (deg):     90.0000     90.0000     90.0000
outcell: Cell volume (Ang**3)        :   1000.0000
 Folding of H and S is implicitly performed
<dSpData1D:S at geom step 6
  <sparsity:sparsity for geom step 6
    nrows_g=36 nrows=8 sparsity=.2060 nnzs=267, refcount: 7>
  <dData1D:(new from dSpData1D) n=267, refcount: 1>
refcount: 1>
New_DM. Step:     6
Re-using DM from previous geometries...
N DMs in history: 1
 DM extrapolation coefficients: 
1   1.00000
New DM after history re-use:
<dSpData2D:SpM extrapolated using coords
  <sparsity:sparsity for geom step 6
    nrows_g=36 nrows=8 sparsity=.2060 nnzs=267, refcount: 8>
  <dData2D:(temp array for extrapolation) n=267 m=1, refcount: 1>
refcount: 1>
No. of atoms with KB's overlaping orbs in proc 0. Max # of overlaps:       4      30
New grid distribution:   1
           1       1:   45    1:   23    1:   12
           2       1:   45    1:   23   13:   23
           3       1:   45    1:   23   24:   34
           4       1:   45    1:   23   35:   45
           5       1:   45   24:   45    1:   12
           6       1:   45   24:   45   13:   23
           7       1:   45   24:   45   24:   34
           8       1:   45   24:   45   35:   45

InitMesh: MESH =    90 x    90 x    90 =      729000
InitMesh: (bp) =    45 x    45 x    45 =       91125
InitMesh: Mesh cutoff (required, used) =   200.000   223.865 Ry
ExtMesh (bp) on 0 =   117 x    95 x    84 =      933660
New grid distribution:   2
           1      15:   45    1:   14    1:   14
           2       1:   13    1:   14   15:   45
           3      14:   45    1:   14   15:   45
           4       1:   13   15:   45   15:   45
           5      14:   45   15:   45    1:   14
           6       1:   13   15:   45    1:   14
           7      14:   45   15:   45   15:   45
           8       1:   14    1:   14    1:   14
New grid distribution:   3
           1      19:   45    1:   16    1:   16
           2       1:   17    1:   16   17:   45
           3       1:   16   17:   45   17:   45
           4      18:   45    1:   16   17:   45
           5      18:   45   17:   45    1:   16
           6       1:   17   17:   45    1:   16
           7      17:   45   17:   45   17:   45
           8       1:   18    1:   16    1:   16
Setting up quadratic distribution...
ExtMesh (bp) on 0 =   103 x    86 x    86 =      761788
PhiOnMesh: Number of (b)points on node 0 =                 6076
PhiOnMesh: nlist on node 0 =                59038

        iscf     Eharris(eV)        E_KS(eV)     FreeEng(eV)     dDmax    Ef(eV) dHmax(eV)
   scf:    1     -900.488264     -900.589356     -900.658670  0.192756 -6.625535  0.121392
   scf:    2     -900.589403     -900.589380     -900.658694  0.000892 -6.627463  0.116576
   scf:    3     -900.588852     -900.589354     -900.658647  0.024468 -6.680998  0.032902
   scf:    4     -900.589336     -900.589585     -900.658896  0.019291 -6.683644  0.015111
   scf:    5     -900.589611     -900.589624     -900.658938  0.006311 -6.683764  0.012259
   scf:    6     -900.589545     -900.589601     -900.658914  0.005224 -6.687387  0.015735
   scf:    7     -900.589623     -900.589627     -900.658941  0.005362 -6.684388  0.001447
   scf:    8     -900.589627     -900.589627     -900.658942  0.001004 -6.685183  0.000524
   scf:    9     -900.589627     -900.589627     -900.658942  0.000078 -6.685073  0.000290

SCF Convergence by DM+H criterion
max |DM_out - DM_in|         :     0.0000779694
max |H_out - H_in|      (eV) :     0.0002902555
SCF cycle converged after 9 iterations

Using DM_out to compute the final energy and forces
No. of atoms with KB's overlaping orbs in proc 0. Max # of overlaps:       4      30

siesta: E_KS(eV) =             -900.5896

siesta: Atomic forces (eV/Ang):
----------------------------------------
   Tot   -0.000456   -0.000410   -0.000434
----------------------------------------
   Max    1.541230
   Res    0.625345    sqrt( Sum f_i^2 / 3N )
----------------------------------------
   Max    1.541230    constrained

Stress-tensor-Voigt (kbar):      -19.27       -0.43       -0.27        0.05       -0.11       -0.01
(Free)E + p*V (eV/cell)     -896.5040
Target enthalpy (eV/cell)     -900.6589

siesta: Stress tensor (static) (eV/Ang**3):
        -0.001870   -0.000075    0.000009
        -0.000075    0.000001   -0.000000
         0.000009   -0.000000    0.000006

siesta: Pressure (static):          0.99528857  kBar

siesta: Stress tensor (total) (eV/Ang**3):
        -0.012028    0.000030   -0.000008
         0.000030   -0.000270   -0.000068
        -0.000008   -0.000068   -0.000166

siesta: Pressure (total):          6.65702801  kBar

siesta: Temp_ion =   13766.229 K

                     ====================================
                        Begin MD step =      7
                     ====================================

outcell: Unit cell vectors (Ang):
       10.000000    0.000000    0.000000
        0.000000   10.000000    0.000000
        0.000000    0.000000   10.000000

outcell: Cell vector modules (Ang)   :   10.000000   10.000000   10.000000
outcell: Cell angles (23,13,12) (deg):     90.0000     90.0000     90.0000
outcell: Cell volume (Ang**3)        :   1000.0000
 Folding of H and S is implicitly performed
<dSpData1D:S at geom step 7
  <sparsity:sparsity for geom step 7
    nrows_g=36 nrows=8 sparsity=.2022 nnzs=262, refcount: 7>
  <dData1D:(new from dSpData1D) n=262, refcount: 1>
refcount: 1>
New_DM. Step:     7
Re-using DM from previous geometries...
N DMs in history: 1
 DM extrapolation coefficients: 
1   1.00000
New DM after history re-use:
<dSpData2D:SpM extrapolated using coords
  <sparsity:sparsity for geom step 7
    nrows_g=36 nrows=8 sparsity=.2022 nnzs=262, refcount: 8>
  <dData2D:(temp array for extrapolation) n=262 m=1, refcount: 1>
refcount: 1>
No. of atoms with KB's overlaping orbs in proc 0. Max # of overlaps:       4      30
New grid distribution:   1
           1       1:   45    1:   23    1:   12
           2       1:   45    1:   23   13:   23
           3       1:   45    1:   23   24:   34
           4       1:   45    1:   23   35:   45
           5       1:   45   24:   45    1:   12
           6       1:   45   24:   45   13:   23
           7       1:   45   24:   45   24:   34
           8       1:   45   24:   45   35:   45

InitMesh: MESH =    90 x    90 x    90 =      729000
InitMesh: (bp) =    45 x    45 x    45 =       91125
InitMesh: Mesh cutoff (required, used) =   200.000   223.865 Ry
ExtMesh (bp) on 0 =   117 x    95 x    84 =      933660
New grid distribution:   2
           1      15:   45    1:   14    1:   14
           2       1:   13    1:   14   15:   45
           3      14:   45    1:   14   15:   45
           4       1:   13   15:   45   15:   45
           5      14:   45   15:   45    1:   14
           6       1:   13   15:   45    1:   14
           7      14:   45   15:   45   15:   45
           8       1:   14    1:   14    1:   14
New grid distribution:   3
           1      19:   45    1:   16    1:   16
           2       1:   17    1:   16   17:   45
           3       1:   16   17:   45   17:   45
           4      18:   45    1:   16   17:   45
           5      18:   45   17:   45    1:   16
           6       1:   17   17:   45    1:   16
           7      17:   45   17:   45   17:   45
           8       1:   18    1:   16    1:   16
Setting up quadratic distribution...
ExtMesh (bp) on 0 =   103 x    86 x    86 =      761788
PhiOnMesh: Number of (b)points on node 0 =                 6076
PhiOnMesh: nlist on node 0 =                59034

        iscf     Eharris(eV)        E_KS(eV)     FreeEng(eV)     dDmax    Ef(eV) dHmax(eV)
   scf:    1     -900.489314     -900.585973     -900.655286  0.214545 -6.598855  0.139223
   scf:    2     -900.586033     -900.586003     -900.655317  0.001228 -6.601074  0.133644
   scf:    3     -900.585130     -900.585905     -900.655188  0.033290 -6.661871  0.030262
   scf:    4     -900.585893     -900.586245     -900.655555  0.022740 -6.665382  0.017382
   scf:    5     -900.586282     -900.586299     -900.655614  0.007128 -6.665674  0.014220
   scf:    6     -900.586218     -900.586276     -900.655589  0.005085 -6.669422  0.013890
   scf:    7     -900.586304     -900.586303     -900.655618  0.005638 -6.666946  0.000890
   scf:    8     -900.586303     -900.586303     -900.655618  0.000561 -6.667408  0.000665
   scf:    9     -900.586303     -900.586303     -900.655618  0.000175 -6.667340  0.000350

SCF Convergence by DM+H criterion
max |DM_out - DM_in|         :     0.0001752785
max |H_out - H_in|      (eV) :     0.0003497488
SCF cycle converged after 9 iterations

Using DM_out to compute the final energy and forces
No. of atoms with KB's overlaping orbs in proc 0. Max # of overlaps:       4      30

siesta: E_KS(eV) =             -900.5863

siesta: Atomic forces (eV/Ang):
----------------------------------------
   Tot   -0.000329   -0.000469   -0.000201
----------------------------------------
   Max    1.726796
   Res    0.711188    sqrt( Sum f_i^2 / 3N )
----------------------------------------
   Max    1.726796    constrained

Stress-tensor-Voigt (kbar):      -19.27       -0.43       -0.24        0.05       -0.09        0.09
(Free)E + p*V (eV/cell)     -896.5067
Target enthalpy (eV/cell)     -900.6556

siesta: Stress tensor (static) (eV/Ang**3):
        -0.001876   -0.000057    0.000074
        -0.000057    0.000006    0.000011
         0.000074    0.000011    0.000022

siesta: Pressure (static):          0.98680526  kBar

siesta: Stress tensor (total) (eV/Ang**3):
        -0.012028    0.000034    0.000054
         0.000034   -0.000267   -0.000058
         0.000054   -0.000058   -0.000152

siesta: Pressure (total):          6.64742694  kBar

siesta: Temp_ion =   13757.738 K

                     ====================================
                        Begin MD step =      8
                     ====================================

outcell: Unit cell vectors (Ang):
       10.000000    0.000000    0.000000
        0.000000   10.000000    0.000000
        0.000000    0.000000   10.000000

outcell: Cell vector modules (Ang)   :   10.000000   10.000000   10.000000
outcell: Cell angles (23,13,12) (deg):     90.0000     90.0000     90.0000
outcell: Cell volume (Ang**3)        :   1000.0000
 Folding of H and S is implicitly performed
<dSpData1D:S at geom step 8
  <sparsity:sparsity for geom step 8
    nrows_g=36 nrows=8 sparsity=.1983 nnzs=257, refcount: 7>
  <dData1D:(new from dSpData1D) n=257, refcount: 1>
refcount: 1>
New_DM. Step:     8
Re-using DM from previous geometries...
N DMs in history: 1
 DM extrapolation coefficients: 
1   1.00000
New DM after history re-use:
<dSpData2D:SpM extrapolated using coords
  <sparsity:sparsity for geom step 8
    nrows_g=36 nrows=8 sparsity=.1983 nnzs=257, refcount: 8>
  <dData2D:(temp array for extrapolation) n=257 m=1, refcount: 1>
refcount: 1>
No. of atoms with KB's overlaping orbs in proc 0. Max # of overlaps:       4      30
New grid distribution:   1
           1       1:   45    1:   23    1:   12
           2       1:   45    1:   23   13:   23
           3       1:   45    1:   23   24:   34
           4       1:   45    1:   23   35:   45
           5       1:   45   24:   45    1:   12
           6       1:   45   24:   45   13:   23
           7       1:   45   24:   45   24:   34
           8       1:   45   24:   45   35:   45

InitMesh: MESH =    90 x    90 x    90 =      729000
InitMesh: (bp) =    45 x    45 x    45 =       91125
InitMesh: Mesh cutoff (required, used) =   200.000   223.865 Ry
ExtMesh (bp) on 0 =   117 x    95 x    84 =      933660
New grid distribution:   2
           1      15:   45    1:   14    1:   14
           2       1:   13    1:   14   15:   45
           3      14:   45    1:   14   15:   45
           4       1:   13   15:   45   15:   45
           5      14:   45   15:   45    1:   14
           6       1:   13   15:   45    1:   14
           7      14:   45   15:   45   15:   45
           8       1:   14    1:   14    1:   14
New grid distribution:   3
           1      19:   45    1:   16    1:   16
           2       1:   17    1:   16   17:   45
           3       1:   16   17:   45   17:   45
           4      18:   45    1:   16   17:   45
           5      18:   45   17:   45    1:   16
           6       1:   17   17:   45    1:   16
           7      17:   45   17:   45   17:   45
           8       1:   18    1:   16    1:   16
Setting up quadratic distribution...
ExtMesh (bp) on 0 =   103 x    86 x    86 =      761788
PhiOnMesh: Number of (b)points on node 0 =                 6076
PhiOnMesh: nlist on node 0 =                59042

        iscf     Eharris(eV)        E_KS(eV)     FreeEng(eV)     dDmax    Ef(eV) dHmax(eV)
   scf:    1     -900.495782     -900.580280     -900.649593  0.230491 -6.587201  0.134875
   scf:    2     -900.580340     -900.580311     -900.649625  0.001293 -6.589343  0.129387
   scf:    3     -900.579127     -900.580108     -900.649383  0.034395 -6.646888  0.045639
   scf:    4     -900.580140     -900.580526     -900.649837  0.025297 -6.651005  0.017351
   scf:    5     -900.580565     -900.580582     -900.649897  0.007535 -6.651825  0.013594
   scf:    6     -900.580547     -900.580574     -900.649888  0.003841 -6.653065  0.010581
   scf:    7     -900.580587     -900.580586     -900.649901  0.004526 -6.652943  0.000739
   scf:    8     -900.580586     -900.580586     -900.649901  0.000352 -6.653278  0.000647
   scf:    9     -900.580586     -900.580586     -900.649901  0.000224 -6.653240  0.000283

SCF Convergence by DM+H criterion
max |DM_out - DM_in|         :     0.0002244839
max |H_out - H_in|      (eV) :     0.0002832517
SCF cycle converged after 9 iterations

Using DM_out to compute the final energy and forces
No. of atoms with KB's overlaping orbs in proc 0. Max # of overlaps:       4      30

siesta: E_KS(eV) =             -900.5806

siesta: Atomic forces (eV/Ang):
----------------------------------------
   Tot    0.000485   -0.000030    0.000436
----------------------------------------
   Max    1.873990
   Res    0.800365    sqrt( Sum f_i^2 / 3N )
----------------------------------------
   Max    1.873990    constrained

Stress-tensor-Voigt (kbar):      -19.23       -0.41       -0.20        0.08       -0.06        0.22
(Free)E + p*V (eV/cell)     -896.5206
Target enthalpy (eV/cell)     -900.6499

siesta: Stress tensor (static) (eV/Ang**3):
        -0.001856   -0.000033    0.000150
        -0.000033    0.000014    0.000027
         0.000150    0.000027    0.000046

siesta: Pressure (static):          0.95885774  kBar

siesta: Stress tensor (total) (eV/Ang**3):
        -0.012004    0.000048    0.000136
         0.000048   -0.000259   -0.000040
         0.000136   -0.000040   -0.000125

siesta: Pressure (total):          6.61598789  kBar

siesta: Temp_ion =   13743.220 K

                     ====================================
                        Begin MD step =      9
                     ====================================

outcell: Unit cell vectors (Ang):
       10.000000    0.000000    0.000000
        0.000000   10.000000    0.000000
        0.000000    0.000000   10.000000

outcell: Cell vector modules (Ang)   :   10.000000   10.000000   10.000000
outcell: Cell angles (23,13,12) (deg):     90.0000     90.0000     90.0000
outcell: Cell volume (Ang**3)        :   1000.0000
 Folding of H and S is implicitly performed
<dSpData1D:S at geom step 9
  <sparsity:sparsity for geom step 9
    nrows_g=36 nrows=8 sparsity=.1991 nnzs=258, refcount: 7>
  <dData1D:(new from dSpData1D) n=258, refcount: 1>
refcount: 1>
New_DM. Step:     9
Re-using DM from previous geometries...
N DMs in history: 1
 DM extrapolation coefficients: 
1   1.00000
New DM after history re-use:
<dSpData2D:SpM extrapolated using coords
  <sparsity:sparsity for geom step 9
    nrows_g=36 nrows=8 sparsity=.1991 nnzs=258, refcount: 8>
  <dData2D:(temp array for extrapolation) n=258 m=1, refcount: 1>
refcount: 1>
No. of atoms with KB's overlaping orbs in proc 0. Max # of overlaps:       4      30
New grid distribution:   1
           1       1:   45    1:   23    1:   12
           2       1:   45    1:   23   13:   23
           3       1:   45    1:   23   24:   34
           4       1:   45    1:   23   35:   45
           5       1:   45   24:   45    1:   12
           6       1:   45   24:   45   13:   23
           7       1:   45   24:   45   24:   34
           8       1:   45   24:   45   35:   45

InitMesh: MESH =    90 x    90 x    90 =      729000
InitMesh: (bp) =    45 x    45 x    45 =       91125
InitMesh: Mesh cutoff (required, used) =   200.000   223.865 Ry
ExtMesh (bp) on 0 =   117 x    95 x    84 =      933660
New grid distribution:   2
           1      15:   45    1:   14    1:   14
           2       1:   13    1:   14   15:   45
           3      14:   45    1:   14   15:   45
           4       1:   13   15:   45   15:   45
           5      14:   45   15:   45    1:   14
           6       1:   13   15:   45    1:   14
           7      14:   45   15:   45   15:   45
           8       1:   14    1:   14    1:   14
New grid distribution:   3
           1      19:   45    1:   16    1:   16
           2       1:   17    1:   16   17:   45
           3       1:   16   17:   45   17:   45
           4      18:   45    1:   16   17:   45
           5      18:   45   17:   45    1:   16
           6       1:   17   17:   45    1:   16
           7      17:   45   17:   45   17:   45
           8       1:   18    1:   16    1:   16
Setting up quadratic distribution...
ExtMesh (bp) on 0 =   103 x    86 x    86 =      761788
PhiOnMesh: Number of (b)points on node 0 =                 6076
PhiOnMesh: nlist on node 0 =                59047

        iscf     Eharris(eV)        E_KS(eV)     FreeEng(eV)     dDmax    Ef(eV) dHmax(eV)
   scf:    1     -900.508880     -900.574077     -900.643390  0.243853 -6.590044  0.109162
   scf:    2     -900.574119     -900.574099     -900.643412  0.001087 -6.591762  0.104625
   scf:    3     -900.573169     -900.573920     -900.643206  0.028325 -6.636900  0.031119
   scf:    4     -900.573927     -900.574231     -900.643541  0.021563 -6.640905  0.013531
   scf:    5     -900.574265     -900.574276     -900.643591  0.006365 -6.641945  0.010729
   scf:    6     -900.574269     -900.574275     -900.643589  0.001965 -6.642089  0.009407
   scf:    7     -900.574279     -900.574278     -900.643593  0.003286 -6.642717  0.000519
   scf:    8     -900.574278     -900.574278     -900.643593  0.000270 -6.642968  0.000458

SCF Convergence by DM+H criterion
max |DM_out - DM_in|         :     0.0002696031
max |H_out - H_in|      (eV) :     0.0004580032
SCF cycle converged after 8 iterations

Using DM_out to compute the final energy and forces
No. of atoms with KB's overlaping orbs in proc 0. Max # of overlaps:       4      30

siesta: E_KS(eV) =             -900.5743

siesta: Atomic forces (eV/Ang):
----------------------------------------
   Tot    0.000517    0.000076    0.000722
----------------------------------------
   Max    1.978878
   Res    0.876319    sqrt( Sum f_i^2 / 3N )
----------------------------------------
   Max    1.978878    constrained

Stress-tensor-Voigt (kbar):      -19.20       -0.40       -0.14        0.10       -0.02        0.36
(Free)E + p*V (eV/cell)     -896.5376
Target enthalpy (eV/cell)     -900.6436

siesta: Stress tensor (static) (eV/Ang**3):
        -0.001836   -0.000010    0.000223
        -0.000010    0.000024    0.000047
         0.000223    0.000047    0.000076

siesta: Pressure (static):          0.92749144  kBar

siesta: Stress tensor (total) (eV/Ang**3):
        -0.011983    0.000065    0.000224
         0.000065   -0.000247   -0.000015
         0.000224   -0.000015   -0.000089

siesta: Pressure (total):          6.57865217  kBar

siesta: Temp_ion =   13727.225 K

                     ====================================
                        Begin MD step =     10
                     ====================================

outcell: Unit cell vectors (Ang):
       10.000000    0.000000    0.000000
        0.000000   10.000000    0.000000
        0.000000    0.000000   10.000000

outcell: Cell vector modules (Ang)   :   10.000000   10.000000   10.000000
outcell: Cell angles (23,13,12) (deg):     90.0000     90.0000     90.0000
outcell: Cell volume (Ang**3)        :   1000.0000
 Folding of H and S is implicitly performed
<dSpData1D:S at geom step 10
  <sparsity:sparsity for geom step 10
    nrows_g=36 nrows=8 sparsity=.2045 nnzs=265, refcount: 7>
  <dData1D:(new from dSpData1D) n=265, refcount: 1>
refcount: 1>
New_DM. Step:    10
Re-using DM from previous geometries...
N DMs in history: 1
 DM extrapolation coefficients: 
1   1.00000
New DM after history re-use:
<dSpData2D:SpM extrapolated using coords
  <sparsity:sparsity for geom step 10
    nrows_g=36 nrows=8 sparsity=.2045 nnzs=265, refcount: 8>
  <dData2D:(temp array for extrapolation) n=265 m=1, refcount: 1>
refcount: 1>
No. of atoms with KB's overlaping orbs in proc 0. Max # of overlaps:       4      30
New grid distribution:   1
           1       1:   45    1:   23    1:   12
           2       1:   45    1:   23   13:   23
           3       1:   45    1:   23   24:   34
           4       1:   45    1:   23   35:   45
           5       1:   45   24:   45    1:   12
           6       1:   45   24:   45   13:   23
           7       1:   45   24:   45   24:   34
           8       1:   45   24:   45   35:   45

InitMesh: MESH =    90 x    90 x    90 =      729000
InitMesh: (bp) =    45 x    45 x    45 =       91125
InitMesh: Mesh cutoff (required, used) =   200.000   223.865 Ry
ExtMesh (bp) on 0 =   117 x    95 x    84 =      933660
New grid distribution:   2
           1      15:   45    1:   14    1:   14
           2       1:   13    1:   14   15:   45
           3      14:   45    1:   14   15:   45
           4       1:   13   15:   45   15:   45
           5      14:   45   15:   45    1:   14
           6       1:   13   15:   45    1:   14
           7      14:   45   15:   45   15:   45
           8       1:   14    1:   14    1:   14
New grid distribution:   3
           1      19:   45    1:   16    1:   16
           2       1:   17    1:   16   17:   45
           3       1:   16   17:   45   17:   45
           4      18:   45    1:   16   17:   45
           5      18:   45   17:   45    1:   16
           6       1:   17   17:   45    1:   16
           7      17:   45   17:   45   17:   45
           8       1:   18    1:   16    1:   16
Setting up quadratic distribution...
ExtMesh (bp) on 0 =   103 x    86 x    86 =      761788
PhiOnMesh: Number of (b)points on node 0 =                 6076
PhiOnMesh: nlist on node 0 =                59068

        iscf     Eharris(eV)        E_KS(eV)     FreeEng(eV)     dDmax    Ef(eV) dHmax(eV)
   scf:    1     -900.529599     -900.569996     -900.639310  0.251397 -6.604931  0.067022
   scf:    2     -900.570010     -900.570003     -900.639318  0.000670 -6.605969  0.064146
   scf:    3     -900.569833     -900.569990     -900.639299  0.017172 -6.632762  0.025673
   scf:    4     -900.569915     -900.570044     -900.639357  0.011875 -6.635592  0.009159
   scf:    5     -900.570068     -900.570072     -900.639386  0.004864 -6.636088  0.006295
   scf:    6     -900.570058     -900.570068     -900.639382  0.002128 -6.637234  0.006152
   scf:    7     -900.570072     -900.570072     -900.639387  0.002092 -6.636592  0.000390
   scf:    8     -900.570072     -900.570072     -900.639387  0.000276 -6.636786  0.000144

SCF Convergence by DM+H criterion
max |DM_out - DM_in|         :     0.0002758960
max |H_out - H_in|      (eV) :     0.0001443175
SCF cycle converged after 8 iterations

Using DM_out to compute the final energy and forces
No. of atoms with KB's overlaping orbs in proc 0. Max # of overlaps:       4      30

siesta: E_KS(eV) =             -900.5701

siesta: Atomic forces (eV/Ang):
----------------------------------------
   Tot   -0.000336   -0.000133    0.000624
----------------------------------------
   Max    2.036349
   Res    0.924974    sqrt( Sum f_i^2 / 3N )
----------------------------------------
   Max    2.036349    constrained

Stress-tensor-Voigt (kbar):      -19.19       -0.37       -0.08        0.12        0.02        0.48
(Free)E + p*V (eV/cell)     -896.5537
Target enthalpy (eV/cell)     -900.6394

siesta: Stress tensor (static) (eV/Ang**3):
        -0.001827    0.000006    0.000282
         0.000006    0.000034    0.000067
         0.000282    0.000067    0.000105

siesta: Pressure (static):          0.90140272  kBar

siesta: Stress tensor (total) (eV/Ang**3):
        -0.011977    0.000078    0.000303
         0.000078   -0.000233    0.000014
         0.000303    0.000014   -0.000047

siesta: Pressure (total):          6.54598636  kBar

siesta: Temp_ion =   13716.725 K

                     ====================================
                        Begin MD step =     11
                     ====================================

outcell: Unit cell vectors (Ang):
       10.000000    0.000000    0.000000
        0.000000   10.000000    0.000000
        0.000000    0.000000   10.000000

outcell: Cell vector modules (Ang)   :   10.000000   10.000000   10.000000
outcell: Cell angles (23,13,12) (deg):     90.0000     90.0000     90.0000
outcell: Cell volume (Ang**3)        :   1000.0000
 Folding of H and S is implicitly performed
<dSpData1D:S at geom step 11
  <sparsity:sparsity for geom step 11
    nrows_g=36 nrows=8 sparsity=.2114 nnzs=274, refcount: 7>
  <dData1D:(new from dSpData1D) n=274, refcount: 1>
refcount: 1>
New_DM. Step:    11
Re-using DM from previous geometries...
N DMs in history: 1
 DM extrapolation coefficients: 
1   1.00000
New DM after history re-use:
<dSpData2D:SpM extrapolated using coords
  <sparsity:sparsity for geom step 11
    nrows_g=36 nrows=8 sparsity=.2114 nnzs=274, refcount: 8>
  <dData2D:(temp array for extrapolation) n=274 m=1, refcount: 1>
refcount: 1>
No. of atoms with KB's overlaping orbs in proc 0. Max # of overlaps:       4      34
New grid distribution:   1
           1       1:   45    1:   23    1:   12
           2       1:   45    1:   23   13:   23
           3       1:   45    1:   23   24:   34
           4       1:   45    1:   23   35:   45
           5       1:   45   24:   45    1:   12
           6       1:   45   24:   45   13:   23
           7       1:   45   24:   45   24:   34
           8       1:   45   24:   45   35:   45

InitMesh: MESH =    90 x    90 x    90 =      729000
InitMesh: (bp) =    45 x    45 x    45 =       91125
InitMesh: Mesh cutoff (required, used) =   200.000   223.865 Ry
ExtMesh (bp) on 0 =   117 x    95 x    84 =      933660
New grid distribution:   2
           1      15:   45    1:   14    1:   14
           2       1:   13    1:   14   15:   45
           3      14:   45    1:   14   15:   45
           4       1:   13   15:   45   15:   45
           5      14:   45   15:   45    1:   14
           6       1:   13   15:   45    1:   14
           7      14:   45   15:   45   15:   45
           8       1:   14    1:   14    1:   14
New grid distribution:   3
           1      19:   45    1:   16    1:   16
           2       1:   17    1:   16   17:   45
           3       1:   16   17:   45   17:   45
           4      18:   45    1:   16   17:   45
           5      18:   45   17:   45    1:   16
           6       1:   17   17:   45    1:   16
           7      17:   45   17:   45   17:   45
           8       1:   18    1:   16    1:   16
Setting up quadratic distribution...
ExtMesh (bp) on 0 =   103 x    86 x    86 =      761788
PhiOnMesh: Number of (b)points on node 0 =                 6076
PhiOnMesh: nlist on node 0 =                59073

        iscf     Eharris(eV)        E_KS(eV)     FreeEng(eV)     dDmax    Ef(eV) dHmax(eV)
   scf:    1     -900.557644     -900.570194     -900.639508  0.253094 -6.629452  0.013820
[...]
   scf:    9     -900.099215     -900.098567     -900.159436  0.003959 -7.446473  0.085461
   scf:   10     -900.099525     -900.101557     -900.160049  0.040462 -7.445710  0.159416
   scf:   11     -900.102585     -900.102097     -900.160592  0.004799 -7.444946  0.150181
   scf:   12     -900.103971     -900.103598     -900.162319  0.020840 -7.442569  0.035226
   scf:   13     -900.102930     -900.103313     -900.162341  0.004847 -7.441268  0.020007
   scf:   14     -900.103674     -900.103500     -900.162370  0.002569 -7.441185  0.012855
   scf:   15     -900.103599     -900.103579     -900.162362  0.007410 -7.442592  0.010648
   scf:   16     -900.103404     -900.103492     -900.162362  0.000889 -7.443054  0.011500
   scf:   17     -900.102948     -900.103239     -900.162402  0.005869 -7.444582  0.004651
   scf:   18     -900.103402     -900.103325     -900.162412  0.001958 -7.444709  0.004807
   scf:   19     -900.103294     -900.103310     -900.162413  0.000468 -7.444786  0.004702
   scf:   20     -900.103232     -900.103271     -900.162416  0.000493 -7.444937  0.003939
   scf:   21     -900.103224     -900.103248     -900.162416  0.000292 -7.444983  0.003346
   scf:   22     -900.103213     -900.103230     -900.162417  0.000163 -7.444784  0.002294
   scf:   23     -900.103175     -900.103203     -900.162417  0.000435 -7.444593  0.001647
   scf:   24     -900.103094     -900.103149     -900.162417  0.000771 -7.444576  0.001102
   scf:   25     -900.103170     -900.103160     -900.162417  0.000138 -7.444564  0.001160
   scf:   26     -900.103232     -900.103196     -900.162417  0.000830 -7.444417  0.000810
   scf:   27     -900.103156     -900.103176     -900.162418  0.000253 -7.444401  0.000766

SCF Convergence by DM+H criterion
max |DM_out - DM_in|         :     0.0002530326
max |H_out - H_in|      (eV) :     0.0007660258
SCF cycle converged after 27 iterations

Using DM_out to compute the final energy and forces
No. of atoms with KB's overlaping orbs in proc 0. Max # of overlaps:       4      36

siesta: E_KS(eV) =             -900.1032

siesta: Atomic forces (eV/Ang):
----------------------------------------
   Tot   -0.001914   -0.004785   -0.002807
----------------------------------------
   Max    2.714549
   Res    1.518286    sqrt( Sum f_i^2 / 3N )
----------------------------------------
   Max    2.714549    constrained

Stress-tensor-Voigt (kbar):        0.44       -0.51       -7.10        2.69       -0.62        4.87
(Free)E + p*V (eV/cell)     -898.6728
Target enthalpy (eV/cell)     -900.1624

siesta: Stress tensor (static) (eV/Ang**3):
         0.003111    0.001919    0.000590
         0.001918    0.000996    0.001009
         0.000591    0.001009    0.000922

siesta: Pressure (static):         -2.68591851  kBar

siesta: Stress tensor (total) (eV/Ang**3):
         0.000277    0.001678    0.003038
         0.001677   -0.000318   -0.000388
         0.003038   -0.000388   -0.004428

siesta: Pressure (total):          2.38672075  kBar

siesta: Temp_ion =   12464.626 K

                     ====================================
                        Begin MD step =    199
                     ====================================

outcell: Unit cell vectors (Ang):
       10.000000    0.000000    0.000000
        0.000000   10.000000    0.000000
        0.000000    0.000000   10.000000

outcell: Cell vector modules (Ang)   :   10.000000   10.000000   10.000000
outcell: Cell angles (23,13,12) (deg):     90.0000     90.0000     90.0000
outcell: Cell volume (Ang**3)        :   1000.0000
<dSpData1D:S at geom step 199
  <sparsity:sparsity for geom step 199
    nrows_g=36 nrows=8 sparsity=.2222 nnzs=288, refcount: 7>
  <dData1D:(new from dSpData1D) n=288, refcount: 1>
refcount: 1>
New_DM. Step:   199
Re-using DM from previous geometries...
N DMs in history: 1
 DM extrapolation coefficients: 
1   1.00000
New DM after history re-use:
<dSpData2D:SpM extrapolated using coords
  <sparsity:sparsity for geom step 199
    nrows_g=36 nrows=8 sparsity=.2222 nnzs=288, refcount: 8>
  <dData2D:(temp array for extrapolation) n=288 m=1, refcount: 1>
refcount: 1>
No. of atoms with KB's overlaping orbs in proc 0. Max # of overlaps:       4      36
New grid distribution:   1
           1       1:   45    1:   23    1:   12
           2       1:   45    1:   23   13:   23
           3       1:   45    1:   23   24:   34
           4       1:   45    1:   23   35:   45
           5       1:   45   24:   45    1:   12
           6       1:   45   24:   45   13:   23
           7       1:   45   24:   45   24:   34
           8       1:   45   24:   45   35:   45

InitMesh: MESH =    90 x    90 x    90 =      729000
InitMesh: (bp) =    45 x    45 x    45 =       91125
InitMesh: Mesh cutoff (required, used) =   200.000   223.865 Ry
ExtMesh (bp) on 0 =   117 x    95 x    84 =      933660
New grid distribution:   2
           1      11:   45    1:   28    1:   13
           2       1:   10   26:   45   14:   45
           3      11:   45    1:   25   14:   45
           4       1:   10   29:   45    1:   13
           5      11:   45   29:   45    1:   13
           6       1:   10    1:   28    1:   13
           7      11:   45   26:   45   14:   45
           8       1:   10    1:   25   14:   45
New grid distribution:   3
           1      17:   45    1:   28    1:   18
           2       1:   16    1:   28    1:   18
           3      16:   45    1:   16   19:   45
           4       1:   15    1:   16   19:   45
           5      18:   45   29:   45    1:   18
           6       1:   17   29:   45    1:   18
           7      15:   45   17:   45   19:   45
           8       1:   14   17:   45   19:   45
Setting up quadratic distribution...
ExtMesh (bp) on 0 =   107 x   100 x    85 =      909500
PhiOnMesh: Number of (b)points on node 0 =                12740
PhiOnMesh: nlist on node 0 =                60868

        iscf     Eharris(eV)        E_KS(eV)     FreeEng(eV)     dDmax    Ef(eV) dHmax(eV)
   scf:    1     -899.018504     -899.743294     -899.810656  0.373365 -7.447644  1.201293
   scf:    2     -900.013789     -899.897703     -899.965273  0.107363 -7.455855  0.573039
   scf:    3     -900.066385     -899.995372     -900.063393  0.106124 -7.459944  0.431099
   scf:    4     -900.005238     -900.051420     -900.116840  0.187734 -7.457434  0.297230
   scf:    5     -900.029395     -900.048583     -900.107479  0.039230 -7.465976  0.389739
   scf:    6     -900.062853     -900.059564     -900.119404  0.051709 -7.466389  0.379912
   scf:    7     -900.050963     -900.056539     -900.116083  0.028246 -7.467471  0.465469
   scf:    8     -900.047547     -900.061723     -900.127089  0.092308 -7.455458  0.051709
   scf:    9     -900.066110     -900.064507     -900.128578  0.014923 -7.457535  0.093257
   scf:   10     -900.060884     -900.063350     -900.128775  0.019407 -7.453868  0.073503
   scf:   11     -900.065789     -900.065265     -900.130191  0.022492 -7.453168  0.013881
   scf:   12     -900.065351     -900.065316     -900.130248  0.001722 -7.453494  0.009382
   scf:   13     -900.063822     -900.064609     -900.130302  0.005566 -7.452859  0.018250
   scf:   14     -900.064985     -900.064811     -900.130355  0.003756 -7.453336  0.008869
   scf:   15     -900.064711     -900.064762     -900.130355  0.001077 -7.453284  0.009170
   scf:   16     -900.064602     -900.064684     -900.130361  0.001060 -7.453459  0.004395
   scf:   17     -900.064534     -900.064609     -900.130363  0.000605 -7.453389  0.004866
   scf:   18     -900.064706     -900.064658     -900.130366  0.000799 -7.453429  0.003659
   scf:   19     -900.064764     -900.064712     -900.130368  0.000913 -7.453361  0.003498
   scf:   20     -900.064742     -900.064727     -900.130368  0.000485 -7.453279  0.003477
   scf:   21     -900.064832     -900.064781     -900.130368  0.001359 -7.453111  0.002885
   scf:   22     -900.064813     -900.064797     -900.130367  0.000147 -7.453076  0.002714
   scf:   23     -900.064867     -900.064833     -900.130368  0.001483 -7.452623  0.001505
   scf:   24     -900.064817     -900.064825     -900.130368  0.000237 -7.452545  0.001734
   scf:   25     -900.064747     -900.064786     -900.130369  0.000367 -7.452553  0.001728
   scf:   26     -900.064753     -900.064770     -900.130369  0.000199 -7.452581  0.001444
   scf:   27     -900.064730     -900.064750     -900.130370  0.000880 -7.452620  0.000654
   scf:   28     -900.064746     -900.064748     -900.130370  0.000063 -7.452626  0.000656

SCF Convergence by DM+H criterion
max |DM_out - DM_in|         :     0.0000632448
max |H_out - H_in|      (eV) :     0.0006564300
SCF cycle converged after 28 iterations

Using DM_out to compute the final energy and forces
No. of atoms with KB's overlaping orbs in proc 0. Max # of overlaps:       4      36

siesta: E_KS(eV) =             -900.0647

siesta: Atomic forces (eV/Ang):
----------------------------------------
   Tot   -0.009816   -0.001289   -0.002078
----------------------------------------
   Max    4.051697
   Res    2.012276    sqrt( Sum f_i^2 / 3N )
----------------------------------------
   Max    4.051697    constrained

Stress-tensor-Voigt (kbar):       -1.79       -1.50       -6.72        1.43        0.82        6.78
(Free)E + p*V (eV/cell)     -898.0471
Target enthalpy (eV/cell)     -900.1304

siesta: Stress tensor (static) (eV/Ang**3):
         0.002024    0.001212    0.001566
         0.001211    0.000263    0.001696
         0.001566    0.001696    0.001060

siesta: Pressure (static):         -1.78756219  kBar

siesta: Stress tensor (total) (eV/Ang**3):
        -0.001119    0.000890    0.004231
         0.000890   -0.000937    0.000513
         0.004231    0.000513   -0.004194

siesta: Pressure (total):          3.33784512  kBar

siesta: Temp_ion =   12377.460 K

                     ====================================
                        Begin MD step =    200
                     ====================================

outcell: Unit cell vectors (Ang):
       10.000000    0.000000    0.000000
        0.000000   10.000000    0.000000
        0.000000    0.000000   10.000000

outcell: Cell vector modules (Ang)   :   10.000000   10.000000   10.000000
outcell: Cell angles (23,13,12) (deg):     90.0000     90.0000     90.0000
outcell: Cell volume (Ang**3)        :   1000.0000
<dSpData1D:S at geom step 200
  <sparsity:sparsity for geom step 200
    nrows_g=36 nrows=8 sparsity=.2222 nnzs=288, refcount: 7>
  <dData1D:(new from dSpData1D) n=288, refcount: 1>
refcount: 1>
New_DM. Step:   200
Re-using DM from previous geometries...
N DMs in history: 1
 DM extrapolation coefficients: 
1   1.00000
New DM after history re-use:
<dSpData2D:SpM extrapolated using coords
  <sparsity:sparsity for geom step 200
    nrows_g=36 nrows=8 sparsity=.2222 nnzs=288, refcount: 8>
  <dData2D:(temp array for extrapolation) n=288 m=1, refcount: 1>
refcount: 1>
No. of atoms with KB's overlaping orbs in proc 0. Max # of overlaps:       4      36
New grid distribution:   1
           1       1:   45    1:   23    1:   12
           2       1:   45    1:   23   13:   23
           3       1:   45    1:   23   24:   34
           4       1:   45    1:   23   35:   45
           5       1:   45   24:   45    1:   12
           6       1:   45   24:   45   13:   23
           7       1:   45   24:   45   24:   34
           8       1:   45   24:   45   35:   45

InitMesh: MESH =    90 x    90 x    90 =      729000
InitMesh: (bp) =    45 x    45 x    45 =       91125
InitMesh: Mesh cutoff (required, used) =   200.000   223.865 Ry
ExtMesh (bp) on 0 =   117 x    95 x    84 =      933660
New grid distribution:   2
           1      11:   45    1:   28    1:   14
           2       1:   10   30:   45   15:   45
           3      11:   45    1:   29   15:   45
           4       1:   10   29:   45    1:   14
           5      11:   45   29:   45    1:   14
           6       1:   10    1:   28    1:   14
           7      11:   45   30:   45   15:   45
           8       1:   10    1:   29   15:   45
New grid distribution:   3
           1      17:   45    1:   28    1:   18
           2       1:   16    1:   28    1:   18
           3      16:   45    1:   16   19:   45
           4       1:   15    1:   16   19:   45
           5      18:   45   29:   45    1:   18
           6       1:   17   29:   45    1:   18
           7      15:   45   17:   45   19:   45
           8       1:   14   17:   45   19:   45
Setting up quadratic distribution...
ExtMesh (bp) on 0 =   107 x   100 x    86 =      920200
PhiOnMesh: Number of (b)points on node 0 =                13720
PhiOnMesh: nlist on node 0 =                61930

        iscf     Eharris(eV)        E_KS(eV)     FreeEng(eV)     dDmax    Ef(eV) dHmax(eV)
   scf:    1     -897.942641     -899.290431     -899.368935  0.537398 -7.440402  2.426942
   scf:    2     -899.967003     -899.702452     -899.779192  0.183832 -7.462331  1.109529
   scf:    3     -899.942726     -899.856528     -899.930188  0.156586 -7.475239  0.419589
   scf:    4     -899.886200     -899.921889     -899.993183  0.195072 -7.477754  0.330544
   scf:    5     -899.920786     -899.921790     -899.991189  0.017262 -7.480464  0.276472
   scf:    6     -899.884375     -899.915497     -899.975834  0.052657 -7.509522  0.633824
   scf:    7     -899.928116     -899.922335     -899.984228  0.016295 -7.507278  0.523807
   scf:    8     -899.929487     -899.930835     -899.997571  0.046159 -7.498446  0.161440
   scf:    9     -899.892559     -899.917846     -899.988225  0.065368 -7.495739  0.230448
   scf:   10     -899.927259     -899.924019     -899.994861  0.040953 -7.494935  0.139677
   scf:   11     -899.933558     -899.930336     -899.999939  0.031393 -7.495534  0.077636
   scf:   12     -899.923925     -899.928228     -899.999825  0.023723 -7.487699  0.168839
   scf:   13     -899.934740     -899.933384     -900.002958  0.038374 -7.485075  0.025292
   scf:   14     -899.933443     -899.933428     -900.002701  0.004027 -7.485794  0.037029
   scf:   15     -899.931981     -899.932977     -900.003401  0.018933 -7.484214  0.015930
   scf:   16     -899.932823     -899.932903     -900.003438  0.001150 -7.484472  0.014497
   scf:   17     -899.932086     -899.932528     -900.003499  0.006683 -7.486456  0.007043
   scf:   18     -899.932529     -899.932530     -900.003514  0.001042 -7.486699  0.005434
   scf:   19     -899.932436     -899.932489     -900.003531  0.002715 -7.487423  0.003569
   scf:   20     -899.932485     -899.932487     -900.003531  0.000068 -7.487456  0.003686
   scf:   21     -899.932443     -899.932465     -900.003531  0.000405 -7.487324  0.003824
   scf:   22     -899.932499     -899.932482     -900.003532  0.000240 -7.487338  0.003742
   scf:   23     -899.932526     -899.932504     -900.003531  0.000397 -7.487268  0.003595
   scf:   24     -899.932468     -899.932486     -900.003532  0.000372 -7.487328  0.003663
   scf:   25     -899.932471     -899.932479     -900.003532  0.000256 -7.487375  0.003718
   scf:   26     -899.932481     -899.932480     -900.003533  0.000337 -7.487497  0.003634
   scf:   27     -899.932481     -899.932481     -900.003532  0.000337 -7.487478  0.003761
   scf:   28     -899.932429     -899.932455     -900.003532  0.000446 -7.487420  0.003734
   scf:   29     -899.932490     -899.932473     -900.003533  0.000457 -7.487457  0.003814
   scf:   30     -899.932491     -899.932482     -900.003532  0.000133 -7.487411  0.003838
   scf:   31     -899.932195     -899.932340     -900.003531  0.001332 -7.487425  0.001843
   scf:   32     -899.932348     -899.932344     -900.003532  0.000065 -7.487369  0.001542
   scf:   33     -899.932449     -899.932397     -900.003534  0.000896 -7.487186  0.001364
   scf:   34     -899.932393     -899.932395     -900.003534  0.000165 -7.487169  0.001437
   scf:   35     -899.932415     -899.932405     -900.003534  0.000159 -7.487189  0.001273
   scf:   36     -899.932403     -899.932404     -900.003534  0.000069 -7.487184  0.001273
   scf:   37     -899.932414     -899.932409     -900.003534  0.000122 -7.487158  0.001198
   scf:   38     -899.932430     -899.932420     -900.003534  0.000414 -7.487116  0.000748
   scf:   39     -899.932434     -899.932427     -900.003534  0.000245 -7.487100  0.000416

SCF Convergence by DM+H criterion
max |DM_out - DM_in|         :     0.0002450196
max |H_out - H_in|      (eV) :     0.0004156596
SCF cycle converged after 39 iterations

Using DM_out to compute the final energy and forces
No. of atoms with KB's overlaping orbs in proc 0. Max # of overlaps:       4      36

siesta: E_KS(eV) =             -899.9324

siesta: Atomic forces (eV/Ang):
----------------------------------------
   Tot   -0.005075    0.005499   -0.000598
----------------------------------------
   Max    5.538591
   Res    2.639861    sqrt( Sum f_i^2 / 3N )
----------------------------------------
   Max    5.538591    constrained

Stress-tensor-Voigt (kbar):       -4.42       -2.61       -5.79       -0.19        2.54        8.59
(Free)E + p*V (eV/cell)     -897.3362
Target enthalpy (eV/cell)     -900.0035

siesta: Stress tensor (static) (eV/Ang**3):
         0.000721    0.000281    0.002501
         0.000281   -0.000614    0.002503
         0.002501    0.002503    0.001421

siesta: Pressure (static):         -0.81599069  kBar

siesta: Stress tensor (total) (eV/Ang**3):
        -0.002760   -0.000121    0.005364
        -0.000121   -0.001630    0.001588
         0.005364    0.001588   -0.003612

siesta: Pressure (total):          4.27357427  kBar

siesta: Temp_ion =   12051.293 K

siesta: Program's energy decomposition (eV):
siesta: Ebs     =      -197.400267
siesta: Eions   =      1592.294315
siesta: Ena     =       381.217553
siesta: Ekin    =       644.216633
siesta: Enl     =       -97.775084
siesta: Eso     =         0.000000
siesta: Eldau   =         0.000000
siesta: DEna    =       -30.996324
siesta: DUscf   =         2.784136
siesta: DUext   =         0.000000
siesta: Exc     =      -207.085025
siesta: eta*DQ  =         0.000000
siesta: Emadel  =         0.000000
siesta: Emeta   =         0.000000
siesta: Emolmec =         0.000000
siesta: Ekinion =         4.673070
siesta: Eharris =      -895.259364
siesta: Etot    =      -895.259357
siesta: FreeEng =      -895.330465

siesta: Final energy (eV):
siesta:  Band Struct. =    -197.400267
siesta:       Kinetic =     644.216633
siesta:       Hartree =     871.087631
siesta:       Eldau   =       0.000000
siesta:       Eso     =       0.000000
siesta:    Ext. field =       0.000000
siesta:   Exch.-corr. =    -207.085025
siesta:  Ion-electron =   -2319.834715
siesta:       Ion-ion =     111.683050
siesta:       Ekinion =       4.673070
siesta:         Total =    -895.259357
siesta:         Fermi =      -7.487100

siesta: Atomic forces (eV/Ang):
siesta:      1   -4.294527   -5.538591   -0.998065
siesta:      2    0.125188   -0.157884   -0.129401
siesta:      3    1.473561    3.028664   -1.319168
siesta:      4    2.690703    2.673309    2.446036
siesta: ----------------------------------------
siesta:    Tot   -0.005075    0.005499   -0.000598

siesta: Stress tensor (static) (eV/Ang**3):
siesta:     0.000721    0.000281    0.002501
siesta:     0.000281   -0.000614    0.002503
siesta:     0.002501    0.002503    0.001421

siesta: Cell volume =       1000.000000 Ang**3

siesta: Pressure (static):
siesta:                Solid            Molecule  Units
siesta:          -0.00000555         -0.00000014  Ry/Bohr**3
siesta:          -0.00050930         -0.00001276  eV/Ang**3
siesta:          -0.81599069         -0.02043775  kBar
(Free)E+ p_basis*V_orbitals  =        -897.794943
(Free)Eharris+ p_basis*V_orbitals  =        -897.794950

siesta: Electric dipole (a.u.)  =   -0.899207   -0.341307   -0.132126
siesta: Electric dipole (Debye) =   -2.285557   -0.867516   -0.335831
>> End of run:   6-MAY-2019  15:10:17
