--------------------------------------------------------------------------
WARNING: There is at least non-excluded one OpenFabrics device found,
but there are no active ports detected (or Open MPI was unable to use
them).  This is most certainly not what you wanted.  Check your
cables, subnet manager configuration, etc.  The openib BTL will be
ignored for this job.

  Local host: compute-0-2
--------------------------------------------------------------------------

                           ***********************       
                           *  WELCOME TO SIESTA  *       
                           ***********************       

reinit: Reading from standard input
reinit: Dumped input in INPUT_TMP.45378
************************** Dump of input data file ****************************
SystemName H2 + O2 -> H2O2 reaction # Descriptive name of the system
SystemLabel            xoc         # Short name for naming files
# Species and atoms
NumberOfSpecies       2
NumberOfAtoms         4
%block ChemicalSpeciesLabel
  1   8  O
  2   1  H
%endblock ChemicalSpeciesLabel
# Basis
%block PAO.Basis
O    3     -0.18518
 n=2   0   2   E    87.07381     4.73934
     7.32942     4.60369
     1.00000     1.00000
 n=2   1   2   E    68.29553     4.97037
     6.60250     3.04671
     1.00000     1.00000
 n=3   2   1   E    91.07115     3.95115
     6.89342
     1.00000
H     2      0.22
 n=1    0    2   E      2.07      0.00
   4.971   1.771
   1.000   1.000
 n=2    1    1   E      0.89      0.01
   4.988
   1.000
%endblock PAO.Basis
LatticeConstant       1.0000 Ang
%block LatticeVectors
20.00000   0.000000  0.000000
 0.00000  20.000000  0.000000
 0.00000   0.000000 20.000000
%endblock LatticeVectors
%block kgrid_Monkhorst_Pack
   1  0  0  0.
   0  1  0  0.
   0  0  1  0.
%endblock Kgrid_Monkhorst_Pack
xc.functional         GGA           # Exchange-correlation functional
xc.authors            PBE           # Exchange-correlation version
#SpinPolarized         true          # Logical parameters are: yes or no
MeshCutoff           200. Ry        # Mesh cutoff. real space mesh
# SCF options
#SCFMustConvergence     true
MaxSCFIterations       150          # Maximum number of SCF iter
DM.MixingWeight       0.02          # New DM amount for next SCF cycle
DM.Tolerance          3.d-4         # Tolerance in maximum difference
                                    # between input and output DM
DM.NumberPulay          6           # to use continuation files
#DM.NumberBroyden       3
#DM.AllowExtrapolation  false
UseSaveData           true
Diag.DivideAndConquer 	true
SolutionMethod        diagon        # OrderN or Diagon
ElectronicTemperature  25 meV       # Temp. for Fermi smearing
# -----------------------------
#  MD options
#  options for a basic MD run
# -----------------------------
# Options to Integrate Equations of motion
MD.TypeOfRun         verlet         # Standard Verlet algrithm
                                    # for Molecular Dynamics
MD.LengthTimeStep         1.0 fs    # time step integration
                                    # Newton eqs of motion
MD.Initial.Time.Step     1          #initial time step of MD
MD.FinalTimeStep         200        #Final time step of MD
# Initial Atomic coordinates and Velocity for MD run
#MD.InitialTemperature   700   K    #Assign initial random velocity from
                                    # a Maxwell-Boltzmann distribution
                                    # for a given temperature
UseSaveXV 		true        # use atomic Positions
                                    # and Velocities from
                                    # a saved XV file
AtomicCoordinatesFormat Ang         #Use Angstroms for atomic coordinates
%block AtomicCoordinatesAndAtomicSpecies
        1.348000        0.000000        0.000000  1  ! O 1
        2.652000        0.000000        0.000000  1  ! O 2
        6.628000        0.000000        0.000000  2  ! H 3
        7.372000        0.000000        0.000000  2  ! H 4
%endblock AtomicCoordinatesAndAtomicSpecies
#MD Output
WriteCoorXmol          true         #Save the final coordinates in .xyz format
WriteMDXmol            true         #Writes the coordinates
                                    #of all atoms at all steps
                                    #in a .ANI file
                                    #in xyz format
WriteMDhistory         true         #writes .MDE and .MD files
                                    # with output data from MD simulation
                                    # MDE contains: Temp, energy, volume, pressure
                                    # (human readable)
                                    # MD contains coords vel lattice vectors
                                    # (unformatted; post-process with iomd.f)
************************** End of input data file *****************************

reinit: -----------------------------------------------------------------------
reinit: System Name: H2 + O2 -> H2O2 reaction
reinit: -----------------------------------------------------------------------
reinit: System Label: xoc
reinit: -----------------------------------------------------------------------
Siesta Version: siesta-4.1--625
Architecture  : x86_64-linux-Intel
Compiler flags: mpifort -m64 -fPIC -O3 -ftree-vectorize -fexpensive-optimizations -funroll-looops -fprefetch-loop-arrays -fno-second-underscore  -flto
PP flags      : -I/home/nicpa/.nicpa_software/2016-oct-ompi/generic/build-tools/1.0/include --I/home/nicpa/.nicpa_software/2016-oct-ompi/generic/gmp/6.1.0/include -I/home/nicpa/.nicpa_software/2016-oct-ompi/generic/mpfr/3.1.4/include -I/home/nicpa/.nicpa_software/2016-oct-ompi/generic/mpc/1.0.3/include -I/home/nicpa/.nicpa_software/2016-oct-ompi/generic/isl/0.16.1/include -I/home/nicpa/.nicpa_software/2016-oct-ompi/generic/gcc/6.2.0/include -I/home/nicpa/.nicpa_software/2016-oct-ompi/generic/numactl/2.0.11/include -I/home/nicpa/.nicpa_software/2016-oct-ompi/zlib/1.2.8/gnu-6.2.0/include -I/home/nicpa/.nicpa_software/2016-oct-ompi/libxml2/2.9.4/gnu-6.2.0/include -I/home/nicpa/.nicpa_software/2016-oct-ompi/hwloc/1.11.4/gnu-6.2.0/include -I/home/nicpa/.nicpa_software/2016-oct-ompi/openmpi/2.0.1/gnu-6.2.0/include -I/home/nicpa/.nicpa_software/2016-oct-ompi/hdf5/1.8.17/gnu-6.2.0/include -I/home/nicpa/.nicpa_software/2016-oct-ompi/pnetcdf/1.7.0/gnu-6.2.0/include -I/home/nicpa/.nicpa_software/2016-oct-ompi/netcdf/4.4.1/gnu-6.2.0/include -I/home/nicpa/.nicpa_software/2016-oct-ompi/flook/0.5/gnu-6.2.0/include -I/home/nicpa/.nicpa_software/2016-oct-ompi/parmetis/4.0.3/gnu-6.2.0/include -I/home/nicpa/.nicpa_software/2016-oct-ompi/scalapack/204/gnu-6.2.0/include -I/home/nicpa/.nicpa_software/2016-oct-ompi/openblas/0.2.19/gnu-6.2.0/include -I/home/nicpa/.nicpa_software/2016-oct-ompi/mumps/5.0.2/gnu-6.2.0/include -I/home/nicpa/.nicpa_software/2016-oct-ompi/fftw/3.3.5/gnu-6.2.0/include -DMPI -DFC_HAVE_FLUSH -DFC_HAVE_ABORT -DCDF -DCDF4 -DSIESTA__FLOOK  -DNCDF -DNCDF_4 -DNCDF_PARALLEL -DSIESTA__METIS -D1 -DTS_NOCHECKS
Libraries     : -lnetcdff -lnetcdf -lpnetcdf -lhdf5_hl -lhdf5 -lz  -lzmumps -lmumps_common -llpord -lparmetis -lmetis -lscalapack -lopenblas   -L/home/nicpa/.nicpa_software/2016-oct-ompi/flook/0.5/gnu-6.2.0/lib -Wl,-rpath=/home/nicpa/.nicpa_software/2016-oct-ompi/flook/0.5/gnu-6.2.0/lib -lflookall -ldl  -flto -fuse-linker-plugin  -lmetis
PARALLEL version
NetCDF support
NetCDF-4 support
NetCDF-4 MPI-IO support
METIS ordering support

* Running on 8 nodes in parallel
>> Start of run:   6-MAY-2020  23:09:02

initatom: Reading input for the pseudopotentials and atomic orbitals ----------
Species number:   1 Atomic number:    8 Label: O
Species number:   2 Atomic number:    1 Label: H

Ground state valence configuration:   2s02  2p04
Reading pseudopotential information in formatted form from O.psf

Pseudopotential generated from a relativistic atomic calculation
There are spin-orbit pseudopotentials available
Spin-orbit interaction is not included in this calculation

Valence configuration for pseudopotential generation:
2s( 2.00) rc: 1.14
2p( 4.00) rc: 1.14
3d( 0.00) rc: 1.14
4f( 0.00) rc: 1.14
Ground state valence configuration:   1s01
Reading pseudopotential information in unformatted form from H.vps

Valence configuration for pseudopotential generation:
1s( 1.00) rc: 1.25
2p( 0.00) rc: 1.25
3d( 0.00) rc: 1.25
4f( 0.00) rc: 1.25
For O, standard SIESTA heuristics set lmxkb to 3
 (one more than the basis l, including polarization orbitals).
Use PS.lmax or PS.KBprojectors blocks to override.
For H, standard SIESTA heuristics set lmxkb to 2
 (one more than the basis l, including polarization orbitals).
Use PS.lmax or PS.KBprojectors blocks to override.

<basis_specs>
===============================================================================
O                    Z=   8    Mass=  16.000        Charge=-0.18518    
Lmxo=2 Lmxkb= 3    BasisType=split      Semic=F
L=0  Nsemic=0  Cnfigmx=2
          n=1  nzeta=2  polorb=0
            splnorm:   0.15000    
               vcte:    87.074    
               rinn:    4.7393    
               qcoe:    0.0000    
               qyuk:    0.0000    
               qwid:   0.10000E-01
                rcs:    7.3294      4.6037    
            lambdas:    1.0000      1.0000    
L=1  Nsemic=0  Cnfigmx=2
          n=1  nzeta=2  polorb=0
            splnorm:   0.15000    
               vcte:    68.296    
               rinn:    4.9704    
               qcoe:    0.0000    
               qyuk:    0.0000    
               qwid:   0.10000E-01
                rcs:    6.6025      3.0467    
            lambdas:    1.0000      1.0000    
L=2  Nsemic=0  Cnfigmx=3
          n=1  nzeta=1  polorb=0
            splnorm:   0.15000    
               vcte:    91.071    
               rinn:    3.9512    
               qcoe:    0.0000    
               qyuk:    0.0000    
               qwid:   0.10000E-01
                rcs:    6.8934    
            lambdas:    1.0000    
-------------------------------------------------------------------------------
L=0  Nkbl=1  erefs: 0.17977+309
L=1  Nkbl=1  erefs: 0.17977+309
L=2  Nkbl=1  erefs: 0.17977+309
L=3  Nkbl=1  erefs: 0.17977+309
===============================================================================
</basis_specs>

atom: Called for O                     (Z =   8)

read_vps: Pseudopotential generation method:
read_vps: ATM3      Troullier-Martins                       
Total valence charge:    6.00000

read_vps: Pseudopotential includes a core correction:
read_vps: Pseudo-core for xc-correction

xc_check: Exchange-correlation functional:
xc_check: GGA Perdew, Burke & Ernzerhof 1996
V l=0 = -2*Zval/r beyond r=  1.1278
V l=1 = -2*Zval/r beyond r=  1.1278
V l=2 = -2*Zval/r beyond r=  1.1278
V l=3 = -2*Zval/r beyond r=  1.1278
All V_l potentials equal beyond r=  1.1278
This should be close to max(r_c) in ps generation
All pots = -2*Zval/r beyond r=  1.1278

VLOCAL1: 99.0% of the norm of Vloc inside     34.126 Ry
VLOCAL1: 99.9% of the norm of Vloc inside     77.774 Ry
atom: Maximum radius for 4*pi*r*r*local-pseudopot. charge    1.37759
atom: Maximum radius for r*vlocal+2*Zval:    1.18566
GHOST: No ghost state for L =  0
GHOST: No ghost state for L =  1
GHOST: No ghost state for L =  2
GHOST: No ghost state for L =  3

KBgen: Kleinman-Bylander projectors: 
   l= 0   rc=  1.360471   el= -1.759790   Ekb=  9.210761   kbcos=  0.328866
   l= 1   rc=  1.360471   el= -0.663797   Ekb= -7.921990   kbcos= -0.392961
   l= 2   rc=  1.791199   el=  0.002031   Ekb= -1.950550   kbcos= -0.003498
   l= 3   rc=  2.107308   el=  0.003153   Ekb= -0.856060   kbcos= -0.000334

KBgen: Total number of  Kleinman-Bylander projectors:   16
atom: -------------------------------------------------------------------------

atom: SANKEY-TYPE ORBITALS:
atom: Selected multiple-zeta basis: split     

atom: basis set generated (by rescaling the valence charge)
atom: for an anion of charge  -0.1852

SPLIT: Orbitals with angular momentum L= 0

SPLIT: Basis orbitals for state 2s

   izeta = 1
                 lambda =    1.000000
                     rc =    7.356000
                 energy =   -1.758588
                kinetic =    1.491851
    potential(screened) =   -3.250439
       potential(ionic) =  -11.062471

   izeta = 2
                 rmatch =    4.690281
              splitnorm =    0.003309
                 energy =   -1.757602
* WARNING: effective split_norm is quite small. Orbitals will be very similar.
                kinetic =    1.574378
    potential(screened) =   -3.331980
       potential(ionic) =  -11.238433

SPLIT: Orbitals with angular momentum L= 1

SPLIT: Basis orbitals for state 2p

   izeta = 1
                 lambda =    1.000000
                     rc =    6.655955
                 energy =   -0.659921
                kinetic =    4.410674
    potential(screened) =   -5.070596
       potential(ionic) =  -12.498772

   izeta = 2
                 rmatch =    3.066256
              splitnorm =    0.127283
                 energy =   -0.537509
                kinetic =    6.271972
    potential(screened) =   -6.809481
       potential(ionic) =  -15.130217

SPLIT: Orbitals with angular momentum L= 2

SPLIT: Basis orbitals for state 3d

   izeta = 1
                 lambda =    1.000000
                     rc =    6.997229
                 energy =    0.764795
                kinetic =    1.136799
    potential(screened) =   -0.372004
       potential(ionic) =   -3.984199
atom: Total number of Sankey-type orbitals: 13

atm_pop: Valence configuration (for local Pseudopot. screening):
 2s( 2.00)                                                            
 2p( 4.00)                                                            
 3d( 0.00)                                                            
Vna: chval, zval:    6.00000   6.00000

Vna:  Cut-off radius for the neutral-atom potential:   7.356000
comcore: Pseudo-core radius Rcore=  1.377587

atom: _________________________________________________________________________

<basis_specs>
===============================================================================
H                    Z=   1    Mass=  1.0100        Charge= 0.22000    
Lmxo=1 Lmxkb= 2    BasisType=split      Semic=F
L=0  Nsemic=0  Cnfigmx=1
          n=1  nzeta=2  polorb=0
            splnorm:   0.15000    
               vcte:    2.0700    
               rinn:    0.0000    
               qcoe:    0.0000    
               qyuk:    0.0000    
               qwid:   0.10000E-01
                rcs:    4.9710      1.7710    
            lambdas:    1.0000      1.0000    
L=1  Nsemic=0  Cnfigmx=2
          n=1  nzeta=1  polorb=0
            splnorm:   0.15000    
               vcte:   0.89000    
               rinn:   0.10000E-01
               qcoe:    0.0000    
               qyuk:    0.0000    
               qwid:   0.10000E-01
                rcs:    4.9880    
            lambdas:    1.0000    
-------------------------------------------------------------------------------
L=0  Nkbl=1  erefs: 0.17977+309
L=1  Nkbl=1  erefs: 0.17977+309
L=2  Nkbl=1  erefs: 0.17977+309
===============================================================================
</basis_specs>

atom: Called for H                     (Z =   1)

read_vps: Pseudopotential generation method:
read_vps: ATM3      Troullier-Martins                       
Total valence charge:    1.00000

xc_check: Exchange-correlation functional:
xc_check: GGA Perdew, Burke & Ernzerhof 1996
V l=0 = -2*Zval/r beyond r=  1.2343
V l=1 = -2*Zval/r beyond r=  1.2189
V l=2 = -2*Zval/r beyond r=  1.2189
All V_l potentials equal beyond r=  1.2343
This should be close to max(r_c) in ps generation
All pots = -2*Zval/r beyond r=  1.2343

VLOCAL1: 99.0% of the norm of Vloc inside     28.493 Ry
VLOCAL1: 99.9% of the norm of Vloc inside     64.935 Ry
atom: Maximum radius for 4*pi*r*r*local-pseudopot. charge    1.45251
atom: Maximum radius for r*vlocal+2*Zval:    1.21892
GHOST: No ghost state for L =  0
GHOST: No ghost state for L =  1
GHOST: No ghost state for L =  2

KBgen: Kleinman-Bylander projectors: 
   l= 0   rc=  1.364359   el= -0.477200   Ekb= -2.021939   kbcos= -0.344793
   l= 1   rc=  1.434438   el=  0.001076   Ekb= -0.443447   kbcos= -0.022843
   l= 2   rc=  1.470814   el=  0.002010   Ekb= -0.140543   kbcos= -0.002863

KBgen: Total number of  Kleinman-Bylander projectors:    9
atom: -------------------------------------------------------------------------

atom: SANKEY-TYPE ORBITALS:
atom: Selected multiple-zeta basis: split     

atom: basis set generated (by rescaling the valence charge)
atom: for a cation of charge   0.2200

SPLIT: Orbitals with angular momentum L= 0

SPLIT: Basis orbitals for state 1s

   izeta = 1
                 lambda =    1.000000
                     rc =    4.950554
                 energy =   -0.678603
                kinetic =    1.118239
    potential(screened) =   -1.796842
       potential(ionic) =   -2.106311

   izeta = 2
                 rmatch =    1.774652
              splitnorm =    0.672347
                 energy =    1.027037
                kinetic =    4.730146
    potential(screened) =   -3.703109
       potential(ionic) =   -3.968059

SPLIT: Orbitals with angular momentum L= 1

SPLIT: Basis orbitals for state 2p

   izeta = 1
                 lambda =    1.000000
                     rc =    5.075940
                 energy =    0.310352
                kinetic =    0.887169
    potential(screened) =   -0.576817
       potential(ionic) =   -0.872649
atom: Total number of Sankey-type orbitals:  5

atm_pop: Valence configuration (for local Pseudopot. screening):
 1s( 1.00)                                                            
 2p( 0.00)                                                            
Vna: chval, zval:    1.00000   1.00000

Vna:  Cut-off radius for the neutral-atom potential:   4.950554

atom: _________________________________________________________________________

prinput: Basis input ----------------------------------------------------------

PAO.BasisType split     

%block ChemicalSpeciesLabel
    1    8 O                       # Species index, atomic number, species label
    2    1 H                       # Species index, atomic number, species label
%endblock ChemicalSpeciesLabel

%block PAO.Basis                 # Define Basis set
O                     3  -0.185            # Label, l-shells, ionic net charge
 n=2   0   2                         # n, l, Nzeta 
   7.356      4.690   
   1.000      1.000   
 n=2   1   2                         # n, l, Nzeta 
   6.656      3.066   
   1.000      1.000   
 n=3   2   1                         # n, l, Nzeta 
   6.997   
   1.000   
H                     2   0.220            # Label, l-shells, ionic net charge
 n=1   0   2                         # n, l, Nzeta 
   4.951      1.775   
   1.000      1.000   
 n=2   1   1                         # n, l, Nzeta 
   5.076   
   1.000   
%endblock PAO.Basis

prinput: ----------------------------------------------------------------------

Dumping basis to NetCDF file O.ion.nc
Dumping basis to NetCDF file H.ion.nc
coor:   Atomic-coordinates input format  =     Cartesian coordinates
coor:                                          (in Angstroms)

ioxv: Reading coordinates and velocities from file
! Info in XV file prevails over previous structure input
WARNING: xoc.VERLET_RESTART not found--reading only XV file and moving back 1 time step using Euler

siesta: Atomic coordinates (Bohr) and species
siesta:      2.54735  -0.00100  -0.00070  1        1
siesta:      5.01155  -0.00100  -0.00070  1        2
siesta:     12.94052   0.01600   0.01130  2        3
siesta:     14.34566   0.01600   0.01130  2        4

siesta: System type = chain     

initatomlists: Number of atoms, orbitals, and projectors:      4    36    50

coxmol: Writing XMOL coordinates into file xoc.xyz                                                             

siesta: ******************** Simulation parameters ****************************
siesta:
siesta: The following are some of the parameters of the simulation.
siesta: A complete list of the parameters used, including default values,
siesta: can be found in file out.fdf
siesta:
redata: Spin configuration                          = none
redata: Number of spin components                   = 1
redata: Time-Reversal Symmetry                      = T
redata: Spin-spiral                                 = F
redata: Long output                                 =   F
redata: Number of Atomic Species                    =        2
redata: Charge density info will appear in .RHO file
redata: Write Mulliken Pop.                         = NO
redata: Mesh Cutoff                                 =   200.0000 Ry
redata: Net charge of the system                    =     0.0000 |e|
redata: Min. number of SCF Iter                     =        0
redata: Max. number of SCF Iter                     =      150
redata: SCF mix quantity                            = Hamiltonian
redata: Mix DM or H after convergence               =   F
redata: Recompute H after scf cycle                 =   F
redata: Mix DM in first SCF step                    =   T
redata: Write Pulay info on disk                    =   F
redata: New DM Mixing Weight                        =     0.0200
redata: New DM Occupancy tolerance                  = 0.000000000001
redata: No kicks to SCF
redata: DM Mixing Weight for Kicks                  =     0.5000
redata: Require Harris convergence for SCF          =   F
redata: Harris energy tolerance for SCF             =     0.000100 eV
redata: Require DM convergence for SCF              =   T
redata: DM tolerance for SCF                        =     0.0003
redata: Require EDM convergence for SCF             =   F
redata: EDM tolerance for SCF                       =     0.001000 eV
redata: Require H convergence for SCF               =   T
redata: Hamiltonian tolerance for SCF               =     0.001000 eV
redata: Require (free) Energy convergence for SCF   =   F
redata: (free) Energy tolerance for SCF             =     0.000100 eV
redata: Using Saved Data (generic)                  =   T
redata: Use continuation files for DM               =   T
redata: Neglect nonoverlap interactions             =   F
redata: Method of Calculation                       = Diagonalization
redata: Divide and Conquer                          =   T
redata: Electronic Temperature                      =   290.1109 K
redata: Fix the spin of the system                  =   F
redata: Dynamics option                             = Verlet MD run
redata: Initial MD time step                        =        1
redata:   Final MD time step                        =      200
redata: Length of MD time step                      =     1.0000 fs
redata: Initial Temperature of MD run               =     0.0000 K
redata: Perform a MD quench                         =   F
mix.SCF: Pulay mixing                            = Pulay
mix.SCF:    Variant                              = stable
mix.SCF:    History steps                        = 6
mix.SCF:    Linear mixing weight                 =     0.020000
mix.SCF:    Mixing weight                        =     0.020000
mix.SCF:    SVD condition                        = 0.1000E-07
redata: Save all siesta data in one NC              =   F
redata: ***********************************************************************

%block SCF.Mixers
  Pulay                   
%endblock SCF.Mixers

%block SCF.Mixer.Pulay
  # Mixing method
  method pulay
  variant stable

  # Mixing options
  weight 0.0200
  weight.linear 0.0200
  history 6
  restart 0
  restart.save 1

  # Continuation options
%endblock SCF.Mixer.Pulay

Size of DM history Fstack: 1
Total number of electrons:    14.000000
Total ionic charge:    14.000000

* ProcessorY, Blocksize:    2   4


* Orbital distribution balance (max,min):     8     4

 Kpoints in:            1 . Kpoints trimmed:            1

siesta: k-grid: Number of k-points =     1
siesta: k-grid: Cutoff (effective) =     5.000 Ang
siesta: k-grid: Supercell and displacements
siesta: k-grid:    1   0   0      0.000
siesta: k-grid:    0   1   0      0.000
siesta: k-grid:    0   0   1      0.000


                     ====================================
                        Begin MD step =      1
                     ====================================

outcell: Unit cell vectors (Ang):
       10.000000    0.000000    0.000000
        0.000000   10.000000    0.000000
        0.000000    0.000000   10.000000

outcell: Cell vector modules (Ang)   :   10.000000   10.000000   10.000000
outcell: Cell angles (23,13,12) (deg):     90.0000     90.0000     90.0000
outcell: Cell volume (Ang**3)        :   1000.0000
 Folding of H and S is implicitly performed
<dSpData1D:S at geom step 1
  <sparsity:sparsity for geom step 1
    nrows_g=36 nrows=8 sparsity=.2145 nnzs=278, refcount: 7>
  <dData1D:(new from dSpData1D) n=278, refcount: 1>
refcount: 1>
New_DM. Step:     1
Initializing Density Matrix...
Attempting to read DM from file... Failed...
DM after filling with atomic data:
<dSpData2D:(DM initialized from atoms)
  <sparsity:sparsity for geom step 1
    nrows_g=36 nrows=8 sparsity=.2145 nnzs=278, refcount: 8>
  <dData2D:(DMatomic) n=278 m=1, refcount: 1>
refcount: 1>
No. of atoms with KB's overlaping orbs in proc 0. Max # of overlaps:       4      29
New grid distribution:   1
           1       1:   45    1:   23    1:   12
           2       1:   45    1:   23   13:   23
           3       1:   45    1:   23   24:   34
           4       1:   45    1:   23   35:   45
           5       1:   45   24:   45    1:   12
           6       1:   45   24:   45   13:   23
           7       1:   45   24:   45   24:   34
           8       1:   45   24:   45   35:   45

InitMesh: MESH =    90 x    90 x    90 =      729000
InitMesh: (bp) =    45 x    45 x    45 =       91125
InitMesh: Mesh cutoff (required, used) =   200.000   223.865 Ry
ExtMesh (bp) on 0 =   117 x    95 x    84 =      933660
New grid distribution:   2
           1      14:   45    1:   14    1:   14
           2       1:   13    1:   14   15:   45
           3      14:   45    1:   14   15:   45
           4       1:   13   15:   45   15:   45
           5      14:   45   15:   45    1:   14
           6       1:   13   15:   45    1:   14
           7      14:   45   15:   45   15:   45
           8       1:   13    1:   14    1:   14
New grid distribution:   3
           1      19:   45    1:   16    1:   16
           2       1:   17    1:   16   17:   45
           3       1:   17   17:   45   17:   45
           4      18:   45    1:   16   17:   45
           5      18:   45   17:   45    1:   16
           6       1:   17   17:   45    1:   16
           7      18:   45   17:   45   17:   45
           8       1:   18    1:   16    1:   16
Setting up quadratic distribution...
ExtMesh (bp) on 0 =   104 x    86 x    86 =      769184
PhiOnMesh: Number of (b)points on node 0 =                 6272
PhiOnMesh: nlist on node 0 =                62532

stepf: Fermi-Dirac step function

siesta: Program's energy decomposition (eV):
siesta: Ebs     =      -190.947313
siesta: Eions   =      1592.294315
siesta: Ena     =       380.201353
siesta: Ekin    =       663.411116
siesta: Enl     =      -100.295546
siesta: Eso     =         0.000000
siesta: Eldau   =         0.000000
siesta: DEna    =       -43.049863
siesta: DUscf   =         3.005461
siesta: DUext   =         0.000000
siesta: Exc     =      -210.895601
siesta: eta*DQ  =         0.000000
siesta: Emadel  =         0.000000
siesta: Emeta   =         0.000000
siesta: Emolmec =         0.000000
siesta: Ekinion =         0.000000
siesta: Eharris =      -900.676696
siesta: Etot    =      -899.917396
siesta: FreeEng =      -899.986710

        iscf     Eharris(eV)        E_KS(eV)     FreeEng(eV)     dDmax    Ef(eV) dHmax(eV)
   scf:    1     -900.676696     -899.917396     -899.986710  3.413622 -9.442306  4.725191
timer: Routine,Calls,Time,% = IterSCF        1       0.832  31.78
   scf:    2     -899.999468     -899.958558     -900.027872  0.062553 -9.352260  4.566677
   scf:    3     -900.970557     -900.592437     -900.661752  2.454646 -6.786546  0.575213
   scf:    4     -900.032887     -900.362421     -900.431735  1.904939 -5.437405  3.263940
   scf:    5     -900.732023     -900.604079     -900.673394  1.684151 -6.849380  0.053040
   scf:    6     -900.604061     -900.604073     -900.673388  0.012700 -6.838269  0.049495
   scf:    7     -900.589477     -900.598227     -900.667542  0.261051 -7.079101  0.509234
   scf:    8     -900.607893     -900.604005     -900.673320  0.194307 -6.879244  0.085326
   scf:    9     -900.604246     -900.604136     -900.673451  0.012377 -6.860192  0.044314
   scf:   10     -900.604195     -900.604180     -900.673494  0.022944 -6.836387  0.010873
   scf:   11     -900.604177     -900.604180     -900.673494  0.004376 -6.839704  0.003159
   scf:   12     -900.604180     -900.604180     -900.673494  0.000432 -6.838948  0.001736
   scf:   13     -900.604181     -900.604181     -900.673496  0.001083 -6.838419  0.000086
   scf:   14     -900.604181     -900.604181     -900.673496  0.000005 -6.838414  0.000085

SCF Convergence by DM+H criterion
max |DM_out - DM_in|         :     0.0000045570
max |H_out - H_in|      (eV) :     0.0000847360
SCF cycle converged after 14 iterations

Using DM_out to compute the final energy and forces
No. of atoms with KB's overlaping orbs in proc 0. Max # of overlaps:       4      29

siesta: E_KS(eV) =             -900.6042

siesta: E_KS - E_eggbox =      -900.6042

siesta: Atomic forces (eV/Ang):
----------------------------------------
   Tot    0.000391    0.000555    0.000431
----------------------------------------
   Max    0.036808
   Res    0.012990    sqrt( Sum f_i^2 / 3N )
----------------------------------------
   Max    0.036808    constrained

Stress-tensor-Voigt (kbar):      -16.12       -0.42       -0.25        0.26       -0.10        0.05
(Free)E + p*V (eV/cell)     -897.1816
Target enthalpy (eV/cell)     -900.6735

siesta: Stress tensor (static) (eV/Ang**3):
         0.000136   -0.000000   -0.000000
        -0.000000    0.000006    0.000000
        -0.000000    0.000000    0.000006

siesta: Pressure (static):         -0.07884142  kBar

siesta: Stress tensor (total) (eV/Ang**3):
        -0.010062    0.000163    0.000029
         0.000163   -0.000259   -0.000060
         0.000029   -0.000060   -0.000154

siesta: Pressure (total):          5.59463337  kBar

siesta: Temp_ion =   13797.487 K

                     ====================================
                        Begin MD step =      2
                     ====================================

outcell: Unit cell vectors (Ang):
       10.000000    0.000000    0.000000
        0.000000   10.000000    0.000000
        0.000000    0.000000   10.000000

outcell: Cell vector modules (Ang)   :   10.000000   10.000000   10.000000
outcell: Cell angles (23,13,12) (deg):     90.0000     90.0000     90.0000
outcell: Cell volume (Ang**3)        :   1000.0000
 Folding of H and S is implicitly performed
<dSpData1D:S at geom step 2
  <sparsity:sparsity for geom step 2
    nrows_g=36 nrows=8 sparsity=.2076 nnzs=269, refcount: 7>
  <dData1D:(new from dSpData1D) n=269, refcount: 1>
refcount: 1>
New_DM. Step:     2
Re-using DM from previous geometries...
N DMs in history: 1
 DM extrapolation coefficients: 
1   1.00000
New DM after history re-use:
<dSpData2D:SpM extrapolated using coords
  <sparsity:sparsity for geom step 2
    nrows_g=36 nrows=8 sparsity=.2076 nnzs=269, refcount: 8>
  <dData2D:(temp array for extrapolation) n=269 m=1, refcount: 1>
refcount: 1>
Note: For starting DM, Qtot, Tr[D*S] =         14.00000000         14.01599284
No. of atoms with KB's overlaping orbs in proc 0. Max # of overlaps:       4      26
New grid distribution:   1
           1       1:   45    1:   23    1:   12
           2       1:   45    1:   23   13:   23
           3       1:   45    1:   23   24:   34
           4       1:   45    1:   23   35:   45
           5       1:   45   24:   45    1:   12
           6       1:   45   24:   45   13:   23
           7       1:   45   24:   45   24:   34
           8       1:   45   24:   45   35:   45

InitMesh: MESH =    90 x    90 x    90 =      729000
InitMesh: (bp) =    45 x    45 x    45 =       91125
InitMesh: Mesh cutoff (required, used) =   200.000   223.865 Ry
ExtMesh (bp) on 0 =   117 x    95 x    84 =      933660
New grid distribution:   2
           1      14:   45    1:   14    1:   14
           2       1:   13    1:   14   15:   45
           3      14:   45    1:   14   15:   45
           4       1:   13   15:   45   15:   45
           5      14:   45   15:   45    1:   14
           6       1:   13   15:   45    1:   14
           7      14:   45   15:   45   15:   45
           8       1:   13    1:   14    1:   14
New grid distribution:   3
           1      19:   45    1:   16    1:   16
           2       1:   17    1:   16   17:   45
           3       1:   17   17:   45   17:   45
           4      18:   45    1:   16   17:   45
           5      18:   45   17:   45    1:   16
           6       1:   17   17:   45    1:   16
           7      18:   45   17:   45   17:   45
           8       1:   18    1:   16    1:   16
Setting up quadratic distribution...
ExtMesh (bp) on 0 =   104 x    86 x    86 =      769184
PhiOnMesh: Number of (b)points on node 0 =                 6272
PhiOnMesh: nlist on node 0 =                62639

        iscf     Eharris(eV)        E_KS(eV)     FreeEng(eV)     dDmax    Ef(eV) dHmax(eV)
   scf:    1     -900.467038     -900.595526     -900.664840  0.186947 -6.882643  0.179241
   scf:    2     -900.595633     -900.595579     -900.664894  0.003870 -6.879443  0.172351
   scf:    3     -900.596663     -900.596296     -900.665609  0.111853 -6.788074  0.026596
   scf:    4     -900.596271     -900.596327     -900.665640  0.007119 -6.786126  0.020324
   scf:    5     -900.596212     -900.596314     -900.665626  0.017724 -6.773439  0.030441
   scf:    6     -900.596276     -900.596307     -900.665622  0.011028 -6.764405  0.047918
   scf:    7     -900.596289     -900.596332     -900.665646  0.038348 -6.796432  0.036461
   scf:    8     -900.596365     -900.596351     -900.665666  0.008389 -6.787460  0.012508
   scf:    9     -900.596357     -900.596355     -900.665669  0.006236 -6.781733  0.000093
   scf:   10     -900.596355     -900.596355     -900.665669  0.000018 -6.781730  0.000092

SCF Convergence by DM+H criterion
max |DM_out - DM_in|         :     0.0000178949
max |H_out - H_in|      (eV) :     0.0000923532
SCF cycle converged after 10 iterations

Using DM_out to compute the final energy and forces
No. of atoms with KB's overlaping orbs in proc 0. Max # of overlaps:       4      26

siesta: E_KS(eV) =             -900.5964

siesta: Atomic forces (eV/Ang):
----------------------------------------
   Tot    0.000492    0.000537    0.000324
----------------------------------------
   Max    0.548403
   Res    0.312406    sqrt( Sum f_i^2 / 3N )
----------------------------------------
   Max    0.548403    constrained

Stress-tensor-Voigt (kbar):      -17.89       -0.42       -0.25        0.22       -0.10        0.00
(Free)E + p*V (eV/cell)     -896.8038
Target enthalpy (eV/cell)     -900.6657

siesta: Stress tensor (static) (eV/Ang**3):
        -0.000971   -0.000027   -0.000027
        -0.000027    0.000005   -0.000001
        -0.000027   -0.000001    0.000004

siesta: Pressure (static):          0.51404282  kBar

siesta: Stress tensor (total) (eV/Ang**3):
        -0.011169    0.000136    0.000002
         0.000136   -0.000261   -0.000061
         0.000002   -0.000061   -0.000156

siesta: Pressure (total):          6.18751762  kBar

siesta: Temp_ion =   13780.907 K

                     ====================================
                        Begin MD step =      3
                     ====================================

outcell: Unit cell vectors (Ang):
       10.000000    0.000000    0.000000
        0.000000   10.000000    0.000000
        0.000000    0.000000   10.000000

outcell: Cell vector modules (Ang)   :   10.000000   10.000000   10.000000
outcell: Cell angles (23,13,12) (deg):     90.0000     90.0000     90.0000
outcell: Cell volume (Ang**3)        :   1000.0000
 Folding of H and S is implicitly performed
<dSpData1D:S at geom step 3
  <sparsity:sparsity for geom step 3
    nrows_g=36 nrows=8 sparsity=.2076 nnzs=269, refcount: 7>
  <dData1D:(new from dSpData1D) n=269, refcount: 1>
refcount: 1>
New_DM. Step:     3
Re-using DM from previous geometries...
N DMs in history: 1
 DM extrapolation coefficients: 
1   1.00000
New DM after history re-use:
<dSpData2D:SpM extrapolated using coords
  <sparsity:sparsity for geom step 3
    nrows_g=36 nrows=8 sparsity=.2076 nnzs=269, refcount: 8>
  <dData2D:(temp array for extrapolation) n=269 m=1, refcount: 1>
refcount: 1>
No. of atoms with KB's overlaping orbs in proc 0. Max # of overlaps:       4      29
New grid distribution:   1
           1       1:   45    1:   23    1:   12
           2       1:   45    1:   23   13:   23
           3       1:   45    1:   23   24:   34
           4       1:   45    1:   23   35:   45
           5       1:   45   24:   45    1:   12
           6       1:   45   24:   45   13:   23
           7       1:   45   24:   45   24:   34
           8       1:   45   24:   45   35:   45

InitMesh: MESH =    90 x    90 x    90 =      729000
InitMesh: (bp) =    45 x    45 x    45 =       91125
InitMesh: Mesh cutoff (required, used) =   200.000   223.865 Ry
ExtMesh (bp) on 0 =   117 x    95 x    84 =      933660
New grid distribution:   2
           1      15:   45    1:   14    1:   14
           2       1:   13    1:   14   15:   45
           3      14:   45    1:   14   15:   45
           4       1:   13   15:   45   15:   45
           5      14:   45   15:   45    1:   14
           6       1:   13   15:   45    1:   14
           7      14:   45   15:   45   15:   45
           8       1:   14    1:   14    1:   14
New grid distribution:   3
           1      19:   45    1:   16    1:   16
           2       1:   17    1:   16   17:   45
           3       1:   16   17:   45   17:   45
           4      18:   45    1:   16   17:   45
           5      18:   45   17:   45    1:   16
           6       1:   17   17:   45    1:   16
           7      17:   45   17:   45   17:   45
           8       1:   18    1:   16    1:   16
Setting up quadratic distribution...
ExtMesh (bp) on 0 =   103 x    86 x    86 =      761788
PhiOnMesh: Number of (b)points on node 0 =                 6076
PhiOnMesh: nlist on node 0 =                59041

        iscf     Eharris(eV)        E_KS(eV)     FreeEng(eV)     dDmax    Ef(eV) dHmax(eV)
   scf:    1     -900.417145     -900.590569     -900.659884  0.267925 -6.724049  0.074002
   scf:    2     -900.590605     -900.590587     -900.659902  0.001576 -6.724240  0.071826
   scf:    3     -900.590916     -900.590816     -900.660128  0.045565 -6.729696  0.023752
   scf:    4     -900.590741     -900.590848     -900.660160  0.010157 -6.730120  0.008826
   scf:    5     -900.590874     -900.590879     -900.660194  0.004335 -6.729961  0.003356
   scf:    6     -900.590878     -900.590879     -900.660193  0.000550 -6.730056  0.003948
   scf:    7     -900.590880     -900.590880     -900.660194  0.000972 -6.729001  0.000635
   scf:    8     -900.590880     -900.590880     -900.660194  0.000651 -6.728998  0.000321
   scf:    9     -900.590880     -900.590880     -900.660194  0.000060 -6.729085  0.000171

SCF Convergence by DM+H criterion
max |DM_out - DM_in|         :     0.0000602395
max |H_out - H_in|      (eV) :     0.0001714015
SCF cycle converged after 9 iterations

Using DM_out to compute the final energy and forces
No. of atoms with KB's overlaping orbs in proc 0. Max # of overlaps:       4      29

siesta: E_KS(eV) =             -900.5909

siesta: Atomic forces (eV/Ang):
----------------------------------------
   Tot    0.000467    0.000128   -0.000091
----------------------------------------
   Max    1.082877
   Res    0.491298    sqrt( Sum f_i^2 / 3N )
----------------------------------------
   Max    1.082877    constrained

Stress-tensor-Voigt (kbar):      -18.95       -0.43       -0.26        0.13       -0.11       -0.05
(Free)E + p*V (eV/cell)     -896.5749
Target enthalpy (eV/cell)     -900.6602

siesta: Stress tensor (static) (eV/Ang**3):
        -0.001644   -0.000071   -0.000050
        -0.000071    0.000000   -0.000005
        -0.000050   -0.000005   -0.000002

siesta: Pressure (static):          0.87881528  kBar

siesta: Stress tensor (total) (eV/Ang**3):
        -0.011826    0.000080   -0.000034
         0.000080   -0.000266   -0.000067
        -0.000034   -0.000067   -0.000165

siesta: Pressure (total):          6.54547247  kBar

siesta: Temp_ion =   13766.811 K

                     ====================================
                        Begin MD step =      4
                     ====================================

outcell: Unit cell vectors (Ang):
       10.000000    0.000000    0.000000
        0.000000   10.000000    0.000000
        0.000000    0.000000   10.000000

outcell: Cell vector modules (Ang)   :   10.000000   10.000000   10.000000
outcell: Cell angles (23,13,12) (deg):     90.0000     90.0000     90.0000
outcell: Cell volume (Ang**3)        :   1000.0000
 Folding of H and S is implicitly performed
<dSpData1D:S at geom step 4
  <sparsity:sparsity for geom step 4
    nrows_g=36 nrows=8 sparsity=.2060 nnzs=267, refcount: 7>
  <dData1D:(new from dSpData1D) n=267, refcount: 1>
refcount: 1>
New_DM. Step:     4
Re-using DM from previous geometries...
N DMs in history: 1
 DM extrapolation coefficients: 
1   1.00000
New DM after history re-use:
<dSpData2D:SpM extrapolated using coords
  <sparsity:sparsity for geom step 4
    nrows_g=36 nrows=8 sparsity=.2060 nnzs=267, refcount: 8>
  <dData2D:(temp array for extrapolation) n=267 m=1, refcount: 1>
refcount: 1>
No. of atoms with KB's overlaping orbs in proc 0. Max # of overlaps:       4      30
New grid distribution:   1
           1       1:   45    1:   23    1:   12
           2       1:   45    1:   23   13:   23
           3       1:   45    1:   23   24:   34
           4       1:   45    1:   23   35:   45
           5       1:   45   24:   45    1:   12
           6       1:   45   24:   45   13:   23
           7       1:   45   24:   45   24:   34
           8       1:   45   24:   45   35:   45

InitMesh: MESH =    90 x    90 x    90 =      729000
InitMesh: (bp) =    45 x    45 x    45 =       91125
InitMesh: Mesh cutoff (required, used) =   200.000   223.865 Ry
ExtMesh (bp) on 0 =   117 x    95 x    84 =      933660
New grid distribution:   2
           1      15:   45    1:   14    1:   14
           2       1:   13    1:   14   15:   45
           3      14:   45    1:   14   15:   45
           4       1:   13   15:   45   15:   45
           5      14:   45   15:   45    1:   14
           6       1:   13   15:   45    1:   14
           7      14:   45   15:   45   15:   45
           8       1:   14    1:   14    1:   14
New grid distribution:   3
           1      19:   45    1:   16    1:   16
           2       1:   17    1:   16   17:   45
           3       1:   16   17:   45   17:   45
           4      18:   45    1:   16   17:   45
           5      18:   45   17:   45    1:   16
           6       1:   17   17:   45    1:   16
           7      17:   45   17:   45   17:   45
           8       1:   18    1:   16    1:   16
Setting up quadratic distribution...
ExtMesh (bp) on 0 =   103 x    86 x    86 =      761788
PhiOnMesh: Number of (b)points on node 0 =                 6076
PhiOnMesh: nlist on node 0 =                59021

        iscf     Eharris(eV)        E_KS(eV)     FreeEng(eV)     dDmax    Ef(eV) dHmax(eV)
   scf:    1     -900.382954     -900.588634     -900.657948  0.367379 -6.573937  0.228319
   scf:    2     -900.588777     -900.588706     -900.658020  0.001518 -6.577536  0.219207
   scf:    3     -900.589130     -900.589311     -900.658609  0.041950 -6.678551  0.046312
   scf:    4     -900.588852     -900.589441     -900.658743  0.019742 -6.683622  0.025900
   scf:    5     -900.589586     -900.589592     -900.658907  0.009664 -6.680949  0.024772
   scf:    6     -900.589474     -900.589551     -900.658864  0.004592 -6.694644  0.036381
   scf:    7     -900.589578     -900.589596     -900.658911  0.015967 -6.680674  0.011327
   scf:    8     -900.589601     -900.589601     -900.658915  0.002434 -6.683060  0.004142
   scf:    9     -900.589601     -900.589601     -900.658915  0.001943 -6.684956  0.000411
   scf:   10     -900.589601     -900.589601     -900.658915  0.000109 -6.684996  0.000312

SCF Convergence by DM+H criterion
max |DM_out - DM_in|         :     0.0001088416
max |H_out - H_in|      (eV) :     0.0003120021
SCF cycle converged after 10 iterations

Using DM_out to compute the final energy and forces
No. of atoms with KB's overlaping orbs in proc 0. Max # of overlaps:       4      30

siesta: E_KS(eV) =             -900.5896

siesta: Atomic forces (eV/Ang):
----------------------------------------
   Tot   -0.000518   -0.000431   -0.000447
----------------------------------------
   Max    1.542568
   Res    0.625824    sqrt( Sum f_i^2 / 3N )
----------------------------------------
   Max    1.542568    constrained

Stress-tensor-Voigt (kbar):      -19.22       -0.43       -0.26        0.08       -0.10        0.02
(Free)E + p*V (eV/cell)     -896.5181
Target enthalpy (eV/cell)     -900.6589

siesta: Stress tensor (static) (eV/Ang**3):
        -0.001832   -0.000069    0.000019
        -0.000069    0.000002    0.000001
         0.000019    0.000001    0.000008

siesta: Pressure (static):          0.97348859  kBar

siesta: Stress tensor (total) (eV/Ang**3):
        -0.011994    0.000051    0.000009
         0.000051   -0.000267   -0.000064
         0.000009   -0.000064   -0.000161

siesta: Pressure (total):          6.63434976  kBar

siesta: Temp_ion =   13760.218 K

                     ====================================
                        Begin MD step =      5
                     ====================================

outcell: Unit cell vectors (Ang):
       10.000000    0.000000    0.000000
        0.000000   10.000000    0.000000
        0.000000    0.000000   10.000000

outcell: Cell vector modules (Ang)   :   10.000000   10.000000   10.000000
outcell: Cell angles (23,13,12) (deg):     90.0000     90.0000     90.0000
outcell: Cell volume (Ang**3)        :   1000.0000
 Folding of H and S is implicitly performed
<dSpData1D:S at geom step 5
  <sparsity:sparsity for geom step 5
    nrows_g=36 nrows=8 sparsity=.1983 nnzs=257, refcount: 7>
  <dData1D:(new from dSpData1D) n=257, refcount: 1>
refcount: 1>
New_DM. Step:     5
Re-using DM from previous geometries...
N DMs in history: 1
 DM extrapolation coefficients: 
1   1.00000
New DM after history re-use:
<dSpData2D:SpM extrapolated using coords
  <sparsity:sparsity for geom step 5
    nrows_g=36 nrows=8 sparsity=.1983 nnzs=257, refcount: 8>
  <dData2D:(temp array for extrapolation) n=257 m=1, refcount: 1>
refcount: 1>
No. of atoms with KB's overlaping orbs in proc 0. Max # of overlaps:       4      30
New grid distribution:   1
           1       1:   45    1:   23    1:   12
           2       1:   45    1:   23   13:   23
           3       1:   45    1:   23   24:   34
           4       1:   45    1:   23   35:   45
           5       1:   45   24:   45    1:   12
           6       1:   45   24:   45   13:   23
           7       1:   45   24:   45   24:   34
           8       1:   45   24:   45   35:   45

InitMesh: MESH =    90 x    90 x    90 =      729000
InitMesh: (bp) =    45 x    45 x    45 =       91125
InitMesh: Mesh cutoff (required, used) =   200.000   223.865 Ry
ExtMesh (bp) on 0 =   117 x    95 x    84 =      933660
New grid distribution:   2
           1      15:   45    1:   14    1:   14
           2       1:   13    1:   14   15:   45
           3      14:   45    1:   14   15:   45
           4       1:   13   15:   45   15:   45
           5      14:   45   15:   45    1:   14
           6       1:   13   15:   45    1:   14
           7      14:   45   15:   45   15:   45
           8       1:   14    1:   14    1:   14
New grid distribution:   3
           1      19:   45    1:   16    1:   16
           2       1:   17    1:   16   17:   45
           3       1:   16   17:   45   17:   45
           4      18:   45    1:   16   17:   45
           5      18:   45   17:   45    1:   16
           6       1:   17   17:   45    1:   16
           7      17:   45   17:   45   17:   45
           8       1:   18    1:   16    1:   16
Setting up quadratic distribution...
ExtMesh (bp) on 0 =   103 x    86 x    86 =      761788
PhiOnMesh: Number of (b)points on node 0 =                 6076
PhiOnMesh: nlist on node 0 =                59043

        iscf     Eharris(eV)        E_KS(eV)     FreeEng(eV)     dDmax    Ef(eV) dHmax(eV)
   scf:    1     -900.394172     -900.577766     -900.647078  0.448214 -6.514273  0.284644
   scf:    2     -900.577985     -900.577877     -900.647190  0.002688 -6.518783  0.273037
   scf:    3     -900.576667     -900.578169     -900.647420  0.072317 -6.641706  0.072867
   scf:    4     -900.577235     -900.578738     -900.648026  0.029470 -6.649933  0.033515
   scf:    5     -900.578999     -900.579061     -900.648375  0.013027 -6.647277  0.031304
   scf:    6     -900.578664     -900.578936     -900.648243  0.008106 -6.666018  0.051132
   scf:    7     -900.579070     -900.579072     -900.648387  0.017118 -6.651331  0.004488
   scf:    8     -900.579073     -900.579073     -900.648388  0.001027 -6.652288  0.001391
   scf:    9     -900.579072     -900.579073     -900.648388  0.001078 -6.653126  0.000592
   scf:   10     -900.579073     -900.579073     -900.648388  0.000202 -6.653230  0.000528

SCF Convergence by DM+H criterion
max |DM_out - DM_in|         :     0.0002018341
max |H_out - H_in|      (eV) :     0.0005282113
SCF cycle converged after 10 iterations

Using DM_out to compute the final energy and forces
No. of atoms with KB's overlaping orbs in proc 0. Max # of overlaps:       4      30

siesta: E_KS(eV) =             -900.5791

siesta: Atomic forces (eV/Ang):
----------------------------------------
   Tot    0.000502   -0.000020    0.000508
----------------------------------------
   Max    1.874156
   Res    0.809730    sqrt( Sum f_i^2 / 3N )
----------------------------------------
   Max    1.874156    constrained

Stress-tensor-Voigt (kbar):      -19.16       -0.41       -0.20        0.11       -0.06        0.23
(Free)E + p*V (eV/cell)     -896.5367
Target enthalpy (eV/cell)     -900.6484

siesta: Stress tensor (static) (eV/Ang**3):
        -0.001807   -0.000024    0.000165
        -0.000024    0.000016    0.000030
         0.000165    0.000030    0.000051

siesta: Pressure (static):          0.92960777  kBar

siesta: Stress tensor (total) (eV/Ang**3):
        -0.011957    0.000067    0.000145
         0.000067   -0.000256   -0.000037
         0.000145   -0.000037   -0.000122

siesta: Pressure (total):          6.58775784  kBar

siesta: Temp_ion =   13734.361 K

                     ====================================
                        Begin MD step =      6
                     ====================================

outcell: Unit cell vectors (Ang):
       10.000000    0.000000    0.000000
        0.000000   10.000000    0.000000
        0.000000    0.000000   10.000000

outcell: Cell vector modules (Ang)   :   10.000000   10.000000   10.000000
outcell: Cell angles (23,13,12) (deg):     90.0000     90.0000     90.0000
outcell: Cell volume (Ang**3)        :   1000.0000
 Folding of H and S is implicitly performed
<dSpData1D:S at geom step 6
  <sparsity:sparsity for geom step 6
    nrows_g=36 nrows=8 sparsity=.2045 nnzs=265, refcount: 7>
  <dData1D:(new from dSpData1D) n=265, refcount: 1>
refcount: 1>
New_DM. Step:     6
Re-using DM from previous geometries...
N DMs in history: 1
 DM extrapolation coefficients: 
1   1.00000
New DM after history re-use:
<dSpData2D:SpM extrapolated using coords
  <sparsity:sparsity for geom step 6
    nrows_g=36 nrows=8 sparsity=.2045 nnzs=265, refcount: 8>
  <dData2D:(temp array for extrapolation) n=265 m=1, refcount: 1>
refcount: 1>
No. of atoms with KB's overlaping orbs in proc 0. Max # of overlaps:       4      30
New grid distribution:   1
           1       1:   45    1:   23    1:   12
           2       1:   45    1:   23   13:   23
           3       1:   45    1:   23   24:   34
           4       1:   45    1:   23   35:   45
           5       1:   45   24:   45    1:   12
           6       1:   45   24:   45   13:   23
           7       1:   45   24:   45   24:   34
           8       1:   45   24:   45   35:   45

InitMesh: MESH =    90 x    90 x    90 =      729000
InitMesh: (bp) =    45 x    45 x    45 =       91125
InitMesh: Mesh cutoff (required, used) =   200.000   223.865 Ry
ExtMesh (bp) on 0 =   117 x    95 x    84 =      933660
New grid distribution:   2
           1      15:   45    1:   14    1:   14
           2       1:   13    1:   14   15:   45
           3      14:   45    1:   14   15:   45
           4       1:   13   15:   45   15:   45
           5      14:   45   15:   45    1:   14
           6       1:   13   15:   45    1:   14
           7      14:   45   15:   45   15:   45
           8       1:   14    1:   14    1:   14
New grid distribution:   3
           1      19:   45    1:   16    1:   16
           2       1:   17    1:   16   17:   45
           3       1:   16   17:   45   17:   45
           4      18:   45    1:   16   17:   45
           5      18:   45   17:   45    1:   16
           6       1:   17   17:   45    1:   16
           7      17:   45   17:   45   17:   45
           8       1:   18    1:   16    1:   16
Setting up quadratic distribution...
ExtMesh (bp) on 0 =   103 x    86 x    86 =      761788
PhiOnMesh: Number of (b)points on node 0 =                 6076
PhiOnMesh: nlist on node 0 =                59065

        iscf     Eharris(eV)        E_KS(eV)     FreeEng(eV)     dDmax    Ef(eV) dHmax(eV)
   scf:    1     -900.468223     -900.568282     -900.637591  0.492865 -6.559528  0.164328
   scf:    2     -900.568402     -900.568344     -900.637656  0.001755 -6.562051  0.155842
   scf:    3     -900.564763     -900.567513     -900.636724  0.040020 -6.625537  0.071718
   scf:    4     -900.567810     -900.568651     -900.637957  0.035045 -6.633389  0.022830
   scf:    5     -900.568724     -900.568760     -900.638075  0.009314 -6.636889  0.014875
   scf:    6     -900.568765     -900.568763     -900.638078  0.000606 -6.636229  0.014954
   scf:    7     -900.568771     -900.568768     -900.638083  0.006026 -6.636580  0.000767
   scf:    8     -900.568768     -900.568768     -900.638083  0.000047 -6.636629  0.000773

SCF Convergence by DM+H criterion
max |DM_out - DM_in|         :     0.0000467524
max |H_out - H_in|      (eV) :     0.0007726422
SCF cycle converged after 8 iterations

Using DM_out to compute the final energy and forces
No. of atoms with KB's overlaping orbs in proc 0. Max # of overlaps:       4      30

siesta: E_KS(eV) =             -900.5688

siesta: Atomic forces (eV/Ang):
----------------------------------------
   Tot   -0.000276   -0.000151    0.000576
----------------------------------------
   Max    2.034758
   Res    0.931230    sqrt( Sum f_i^2 / 3N )
----------------------------------------
   Max    2.034758    constrained

Stress-tensor-Voigt (kbar):      -19.14       -0.37       -0.08        0.14        0.02        0.47
(Free)E + p*V (eV/cell)     -896.5612
Target enthalpy (eV/cell)     -900.6381

siesta: Stress tensor (static) (eV/Ang**3):
        -0.001800    0.000012    0.000291
         0.000012    0.000036    0.000069
         0.000291    0.000069    0.000108

siesta: Pressure (static):          0.88441106  kBar

siesta: Stress tensor (total) (eV/Ang**3):
        -0.011944    0.000088    0.000295
         0.000089   -0.000234    0.000010
         0.000295    0.000010   -0.000053

siesta: Pressure (total):          6.53192869  kBar

siesta: Temp_ion =   13710.714 K

                     ====================================
                        Begin MD step =      7
                     ====================================

outcell: Unit cell vectors (Ang):
       10.000000    0.000000    0.000000
        0.000000   10.000000    0.000000
        0.000000    0.000000   10.000000

outcell: Cell vector modules (Ang)   :   10.000000   10.000000   10.000000
outcell: Cell angles (23,13,12) (deg):     90.0000     90.0000     90.0000
outcell: Cell volume (Ang**3)        :   1000.0000
 Folding of H and S is implicitly performed
<dSpData1D:S at geom step 7
  <sparsity:sparsity for geom step 7
    nrows_g=36 nrows=8 sparsity=.2153 nnzs=279, refcount: 7>
  <dData1D:(new from dSpData1D) n=279, refcount: 1>
refcount: 1>
New_DM. Step:     7
Re-using DM from previous geometries...
N DMs in history: 1
 DM extrapolation coefficients: 
1   1.00000
New DM after history re-use:
<dSpData2D:SpM extrapolated using coords
  <sparsity:sparsity for geom step 7
    nrows_g=36 nrows=8 sparsity=.2153 nnzs=279, refcount: 8>
  <dData2D:(temp array for extrapolation) n=279 m=1, refcount: 1>
refcount: 1>
No. of atoms with KB's overlaping orbs in proc 0. Max # of overlaps:       4      34
New grid distribution:   1
           1       1:   45    1:   23    1:   12
           2       1:   45    1:   23   13:   23
           3       1:   45    1:   23   24:   34
           4       1:   45    1:   23   35:   45
           5       1:   45   24:   45    1:   12
           6       1:   45   24:   45   13:   23
           7       1:   45   24:   45   24:   34
           8       1:   45   24:   45   35:   45

InitMesh: MESH =    90 x    90 x    90 =      729000
InitMesh: (bp) =    45 x    45 x    45 =       91125
InitMesh: Mesh cutoff (required, used) =   200.000   223.865 Ry
ExtMesh (bp) on 0 =   117 x    95 x    84 =      933660
New grid distribution:   2
           1      15:   45    1:   14    1:   14
           2       1:   13    1:   14   15:   45
           3      14:   45    1:   14   15:   45
           4       1:   13   15:   45   15:   45
           5      14:   45   15:   45    1:   14
           6       1:   13   15:   45    1:   14
           7      14:   45   15:   45   15:   45
           8       1:   14    1:   14    1:   14
New grid distribution:   3
           1      19:   45    1:   16    1:   16
           2       1:   17    1:   16   17:   45
           3       1:   16   17:   45   17:   45
           4      18:   45    1:   16   17:   45
           5      18:   45   17:   45    1:   16
           6       1:   17   17:   45    1:   16
           7      17:   45   17:   45   17:   45
           8       1:   18    1:   16    1:   16
Setting up quadratic distribution...
ExtMesh (bp) on 0 =   103 x    86 x    86 =      761788
PhiOnMesh: Number of (b)points on node 0 =                 6076
PhiOnMesh: nlist on node 0 =                59038

        iscf     Eharris(eV)        E_KS(eV)     FreeEng(eV)     dDmax    Ef(eV) dHmax(eV)
   scf:    1     -900.590806     -900.576404     -900.645719  0.474311 -6.669650  0.064164
   scf:    2     -900.576419     -900.576412     -900.645726  0.000878 -6.668603  0.061623
   scf:    3     -900.576424     -900.576464     -900.645776  0.024271 -6.639634  0.012469
   scf:    4     -900.576444     -900.576495     -900.645809  0.007669 -6.638623  0.009718
   scf:    5     -900.576500     -900.576504     -900.645819  0.003099 -6.637850  0.006731
   scf:    6     -900.576504     -900.576504     -900.645819  0.000107 -6.637970  0.006710
   scf:    7     -900.576506     -900.576506     -900.645820  0.001290 -6.637950  0.000647
   scf:    8     -900.576506     -900.576506     -900.645820  0.000116 -6.637935  0.000247

SCF Convergence by DM+H criterion
max |DM_out - DM_in|         :     0.0001164610
max |H_out - H_in|      (eV) :     0.0002469797
SCF cycle converged after 8 iterations

Using DM_out to compute the final energy and forces
No. of atoms with KB's overlaping orbs in proc 0. Max # of overlaps:       4      34

siesta: E_KS(eV) =             -900.5765

siesta: Atomic forces (eV/Ang):
----------------------------------------
   Tot   -0.007707   -0.000044    0.000138
----------------------------------------
   Max    2.000446
   Res    0.909292    sqrt( Sum f_i^2 / 3N )
----------------------------------------
   Max    2.000446    constrained

Stress-tensor-Voigt (kbar):      -19.24       -0.35        0.01        0.10        0.08        0.57
(Free)E + p*V (eV/cell)     -896.5728
Target enthalpy (eV/cell)     -900.6458

siesta: Stress tensor (static) (eV/Ang**3):
        -0.001845   -0.000009    0.000311
        -0.000009    0.000044    0.000090
         0.000311    0.000090    0.000139

siesta: Pressure (static):          0.88804415  kBar

siesta: Stress tensor (total) (eV/Ang**3):
        -0.012010    0.000062    0.000358
         0.000062   -0.000216    0.000051
         0.000358    0.000051    0.000007

siesta: Pressure (total):          6.52583829  kBar

siesta: Temp_ion =   13732.237 K

                     ====================================
                        Begin MD step =      8
                     ====================================

outcell: Unit cell vectors (Ang):
       10.000000    0.000000    0.000000
        0.000000   10.000000    0.000000
        0.000000    0.000000   10.000000

outcell: Cell vector modules (Ang)   :   10.000000   10.000000   10.000000
outcell: Cell angles (23,13,12) (deg):     90.0000     90.0000     90.0000
outcell: Cell volume (Ang**3)        :   1000.0000
 Folding of H and S is implicitly performed
<dSpData1D:S at geom step 8
  <sparsity:sparsity for geom step 8
    nrows_g=36 nrows=8 sparsity=.2153 nnzs=279, refcount: 7>
  <dData1D:(new from dSpData1D) n=279, refcount: 1>
refcount: 1>
New_DM. Step:     8
Re-using DM from previous geometries...
N DMs in history: 1
 DM extrapolation coefficients: 
1   1.00000
New DM after history re-use:
<dSpData2D:SpM extrapolated using coords
  <sparsity:sparsity for geom step 8
    nrows_g=36 nrows=8 sparsity=.2153 nnzs=279, refcount: 8>
  <dData2D:(temp array for extrapolation) n=279 m=1, refcount: 1>
refcount: 1>
No. of atoms with KB's overlaping orbs in proc 0. Max # of overlaps:       4      34
New grid distribution:   1
           1       1:   45    1:   23    1:   12
           2       1:   45    1:   23   13:   23
           3       1:   45    1:   23   24:   34
           4       1:   45    1:   23   35:   45
           5       1:   45   24:   45    1:   12
           6       1:   45   24:   45   13:   23
           7       1:   45   24:   45   24:   34
           8       1:   45   24:   45   35:   45

InitMesh: MESH =    90 x    90 x    90 =      729000
InitMesh: (bp) =    45 x    45 x    45 =       91125
InitMesh: Mesh cutoff (required, used) =   200.000   223.865 Ry
ExtMesh (bp) on 0 =   117 x    95 x    84 =      933660
New grid distribution:   2
           1      15:   45    1:   14    1:   14
           2       1:   13    1:   14   15:   45
           3      14:   45    1:   14   15:   45
           4       1:   13   15:   45   15:   45
           5      14:   45   15:   45    1:   14
           6       1:   13   15:   45    1:   14
           7      14:   45   15:   45   15:   45
           8       1:   14    1:   14    1:   14
New grid distribution:   3
           1      19:   45    1:   16    1:   16
           2       1:   17    1:   16   17:   45
           3       1:   16   17:   45   17:   45
           4      18:   45    1:   16   17:   45
           5      18:   45   17:   45    1:   16
           6       1:   17   17:   45    1:   16
           7      17:   45   17:   45   17:   45
           8       1:   18    1:   16    1:   16
Setting up quadratic distribution...
ExtMesh (bp) on 0 =   103 x    86 x    86 =      761788
PhiOnMesh: Number of (b)points on node 0 =                 6076
PhiOnMesh: nlist on node 0 =                58983

        iscf     Eharris(eV)        E_KS(eV)     FreeEng(eV)     dDmax    Ef(eV) dHmax(eV)
   scf:    1     -900.710519     -900.596866     -900.666179  0.412919 -6.785486  0.278258
   scf:    2     -900.597064     -900.596966     -900.666280  0.003269 -6.781185  0.266211
   scf:    3     -900.597203     -900.597653     -900.666951  0.084551 -6.669977  0.080765
   scf:    4     -900.597196     -900.597892     -900.667188  0.023752 -6.659465  0.032275
   scf:    5     -900.597990     -900.598071     -900.667386  0.013486 -6.651673  0.022851
   scf:    6     -900.597803     -900.597976     -900.667287  0.010617 -6.636978  0.065219
   scf:    7     -900.598117     -900.598094     -900.667409  0.022635 -6.657423  0.005172
   scf:    8     -900.598095     -900.598095     -900.667409  0.000708 -6.657235  0.003447
   scf:    9     -900.598095     -900.598095     -900.667409  0.001910 -6.655315  0.000333
   scf:   10     -900.598095     -900.598095     -900.667409  0.000063 -6.655285  0.000271

SCF Convergence by DM+H criterion
max |DM_out - DM_in|         :     0.0000628791
max |H_out - H_in|      (eV) :     0.0002706502
SCF cycle converged after 10 iterations

Using DM_out to compute the final energy and forces
No. of atoms with KB's overlaping orbs in proc 0. Max # of overlaps:       4      34

siesta: E_KS(eV) =             -900.5981

siesta: Atomic forces (eV/Ang):
----------------------------------------
   Tot    0.009497   -0.000185    0.000364
----------------------------------------
   Max    1.770790
   Res    0.756742    sqrt( Sum f_i^2 / 3N )
----------------------------------------
   Max    1.770790    constrained

Stress-tensor-Voigt (kbar):      -19.53       -0.36        0.01       -0.05        0.08        0.45
(Free)E + p*V (eV/cell)     -896.5313
Target enthalpy (eV/cell)     -900.6674

siesta: Stress tensor (static) (eV/Ang**3):
        -0.001959   -0.000089    0.000199
        -0.000089    0.000024    0.000065
         0.000199    0.000065    0.000100

siesta: Pressure (static):          0.98026739  kBar

siesta: Stress tensor (total) (eV/Ang**3):
        -0.012187   -0.000030    0.000281
        -0.000030   -0.000225    0.000050
         0.000281    0.000050    0.000003

siesta: Pressure (total):          6.62691191  kBar

siesta: Temp_ion =   13783.118 K

                     ====================================
                        Begin MD step =      9
                     ====================================

outcell: Unit cell vectors (Ang):
       10.000000    0.000000    0.000000
        0.000000   10.000000    0.000000
        0.000000    0.000000   10.000000

outcell: Cell vector modules (Ang)   :   10.000000   10.000000   10.000000
outcell: Cell angles (23,13,12) (deg):     90.0000     90.0000     90.0000
outcell: Cell volume (Ang**3)        :   1000.0000
 Folding of H and S is implicitly performed
<dSpData1D:S at geom step 9
  <sparsity:sparsity for geom step 9
    nrows_g=36 nrows=8 sparsity=.2153 nnzs=279, refcount: 7>
  <dData1D:(new from dSpData1D) n=279, refcount: 1>
refcount: 1>
New_DM. Step:     9
Re-using DM from previous geometries...
N DMs in history: 1
 DM extrapolation coefficients: 
1   1.00000
New DM after history re-use:
<dSpData2D:SpM extrapolated using coords
  <sparsity:sparsity for geom step 9
    nrows_g=36 nrows=8 sparsity=.2153 nnzs=279, refcount: 8>
  <dData2D:(temp array for extrapolation) n=279 m=1, refcount: 1>
refcount: 1>
Note: For starting DM, Qtot, Tr[D*S] =         14.00000000         14.01491286
No. of atoms with KB's overlaping orbs in proc 0. Max # of overlaps:       4      34
New grid distribution:   1
           1       1:   45    1:   23    1:   12
           2       1:   45    1:   23   13:   23
           3       1:   45    1:   23   24:   34
           4       1:   45    1:   23   35:   45
           5       1:   45   24:   45    1:   12
           6       1:   45   24:   45   13:   23
           7       1:   45   24:   45   24:   34
           8       1:   45   24:   45   35:   45

InitMesh: MESH =    90 x    90 x    90 =      729000
InitMesh: (bp) =    45 x    45 x    45 =       91125
InitMesh: Mesh cutoff (required, used) =   200.000   223.865 Ry
ExtMesh (bp) on 0 =   117 x    95 x    84 =      933660
New grid distribution:   2
           1       1:   14   15:   45    1:   14
           2       1:   14    1:   14   15:   45
           3      15:   45    1:   14   15:   45
           4       1:   13   15:   45   15:   45
           5      15:   45   15:   45    1:   14
           6      15:   45    1:   14    1:   14
           7      14:   45   15:   45   15:   45
           8       1:   14    1:   14    1:   14
New grid distribution:   3
           1      19:   45    1:   16    1:   16
           2       1:   17    1:   16   17:   45
           3       1:   16   17:   45   17:   45
           4      18:   45    1:   16   17:   45
           5      18:   45   17:   45    1:   16
           6       1:   17   17:   45    1:   16
           7      17:   45   17:   45   17:   45
           8       1:   18    1:   16    1:   16
Setting up quadratic distribution...
ExtMesh (bp) on 0 =    86 x   103 x    86 =      761788
PhiOnMesh: Number of (b)points on node 0 =                 6076
PhiOnMesh: nlist on node 0 =                55598

        iscf     Eharris(eV)        E_KS(eV)     FreeEng(eV)     dDmax    Ef(eV) dHmax(eV)
   scf:    1     -900.764091     -900.605009     -900.674323  0.124149 -6.851367  0.361594
   scf:    2     -900.605347     -900.605180     -900.674494  0.004030 -6.845912  0.345338
   scf:    3     -900.606111     -900.606495     -900.675803  0.100110 -6.710312  0.122275
   scf:    4     -900.606666     -900.606965     -900.676269  0.015169 -6.692601  0.035854
   scf:    5     -900.606808     -900.607019     -900.676332  0.011470 -6.678501  0.045173
   scf:    6     -900.606847     -900.606961     -900.676275  0.008421 -6.666710  0.078882
   scf:    7     -900.607117     -900.607090     -900.676405  0.028513 -6.692279  0.012631
   scf:    8     -900.607092     -900.607092     -900.676407  0.001453 -6.691323  0.006521
   scf:    9     -900.607093     -900.607093     -900.676408  0.003491 -6.687953  0.000307
   scf:   10     -900.607093     -900.607093     -900.676408  0.000061 -6.687925  0.000310

SCF Convergence by DM+H criterion
max |DM_out - DM_in|         :     0.0000609621
max |H_out - H_in|      (eV) :     0.0003095422
SCF cycle converged after 10 iterations

Using DM_out to compute the final energy and forces
No. of atoms with KB's overlaping orbs in proc 0. Max # of overlaps:       4      34

siesta: E_KS(eV) =             -900.6071

siesta: Atomic forces (eV/Ang):
----------------------------------------
   Tot   -0.038929   -0.000258    0.000041
----------------------------------------
   Max    1.393180
   Res    0.563623    sqrt( Sum f_i^2 / 3N )
----------------------------------------
   Max    1.393180    constrained

Stress-tensor-Voigt (kbar):      -19.52       -0.43       -0.14       -0.26       -0.01        0.16
(Free)E + p*V (eV/cell)     -896.4980
Target enthalpy (eV/cell)     -900.6764

siesta: Stress tensor (static) (eV/Ang**3):
        -0.001882   -0.000198   -0.000001
        -0.000198   -0.000026   -0.000010
        -0.000001   -0.000010   -0.000015

siesta: Pressure (static):          1.02710109  kBar

siesta: Stress tensor (total) (eV/Ang**3):
        -0.012181   -0.000163    0.000098
        -0.000163   -0.000268   -0.000007
         0.000098   -0.000007   -0.000086

siesta: Pressure (total):          6.69466769  kBar

siesta: Temp_ion =   13812.293 K

                     ====================================
                        Begin MD step =     10
                     ====================================

outcell: Unit cell vectors (Ang):
       10.000000    0.000000    0.000000
        0.000000   10.000000    0.000000
        0.000000    0.000000   10.000000

outcell: Cell vector modules (Ang)   :   10.000000   10.000000   10.000000
outcell: Cell angles (23,13,12) (deg):     90.0000     90.0000     90.0000
outcell: Cell volume (Ang**3)        :   1000.0000
 Folding of H and S is implicitly performed
<dSpData1D:S at geom step 10
  <sparsity:sparsity for geom step 10
    nrows_g=36 nrows=8 sparsity=.2176 nnzs=282, refcount: 7>
  <dData1D:(new from dSpData1D) n=282, refcount: 1>
refcount: 1>
New_DM. Step:    10
Re-using DM from previous geometries...
N DMs in history: 1
 DM extrapolation coefficients: 
1   1.00000
New DM after history re-use:
<dSpData2D:SpM extrapolated using coords
  <sparsity:sparsity for geom step 10
    nrows_g=36 nrows=8 sparsity=.2176 nnzs=282, refcount: 8>
  <dData2D:(temp array for extrapolation) n=282 m=1, refcount: 1>
refcount: 1>
No. of atoms with KB's overlaping orbs in proc 0. Max # of overlaps:       4      34
New grid distribution:   1
           1       1:   45    1:   23    1:   12
           2       1:   45    1:   23   13:   23
           3       1:   45    1:   23   24:   34
           4       1:   45    1:   23   35:   45
           5       1:   45   24:   45    1:   12
           6       1:   45   24:   45   13:   23
           7       1:   45   24:   45   24:   34
           8       1:   45   24:   45   35:   45

InitMesh: MESH =    90 x    90 x    90 =      729000
InitMesh: (bp) =    45 x    45 x    45 =       91125
InitMesh: Mesh cutoff (required, used) =   200.000   223.865 Ry
ExtMesh (bp) on 0 =   117 x    95 x    84 =      933660
New grid distribution:   2
           1       1:   14   15:   45    1:   14
           2       1:   14    1:   14   15:   45
           3      15:   45    1:   14   15:   45
           4       1:   13   15:   45   15:   45
           5      15:   45   15:   45    1:   14
           6      15:   45    1:   14    1:   14
           7      14:   45   15:   45   15:   45
           8       1:   14    1:   14    1:   14
New grid distribution:   3
           1      17:   45   17:   45    1:   16
           2      19:   45    1:   16    1:   16
           3      17:   45    1:   16   17:   45
           4       1:   16    1:   16   17:   45
           5       1:   16   17:   45    1:   16
           6       1:   18    1:   16    1:   16
           7      17:   45   17:   45   17:   45
           8       1:   16   17:   45   17:   45
Setting up quadratic distribution...
ExtMesh (bp) on 0 =    86 x   103 x    86 =      761788
PhiOnMesh: Number of (b)points on node 0 =                 6076
PhiOnMesh: nlist on node 0 =                55822

        iscf     Eharris(eV)        E_KS(eV)     FreeEng(eV)     dDmax    Ef(eV) dHmax(eV)
   scf:    1     -900.727216     -900.590502     -900.659813  0.746239 -6.831601  0.230344
   scf:    2     -900.590672     -900.590588     -900.659901  0.002026 -6.828193  0.220001
   scf:    3     -900.590446     -900.591050     -900.660344  0.050103 -6.743219  0.075585
   scf:    4     -900.590484     -900.591326     -900.660616  0.026157 -6.733231  0.017259
   scf:    5     -900.591544     -900.591541     -900.660855  0.011829 -6.730442  0.012969
   scf:    6     -900.591508     -900.591528     -900.660841  0.002267 -6.728674  0.019221
   scf:    7     -900.591555     -900.591550     -900.660865  0.011057 -6.732457  0.001203
   scf:    8     -900.591550     -900.591550     -900.660865  0.000340 -6.732298  0.000917
   scf:    9     -900.591550     -900.591550     -900.660864  0.000713 -6.731718  0.000512
   scf:   10     -900.591550     -900.591550     -900.660865  0.000092 -6.731650  0.000495

SCF Convergence by DM+H criterion
max |DM_out - DM_in|         :     0.0000917789
max |H_out - H_in|      (eV) :     0.0004948084
SCF cycle converged after 10 iterations

Using DM_out to compute the final energy and forces
No. of atoms with KB's overlaping orbs in proc 0. Max # of overlaps:       4      34

siesta: E_KS(eV) =             -900.5916

siesta: Atomic forces (eV/Ang):
----------------------------------------
   Tot   -0.000277   -0.000257   -0.000217
----------------------------------------
   Max    0.944313
   Res    0.428189    sqrt( Sum f_i^2 / 3N )
----------------------------------------
   Max    0.944313    constrained

Stress-tensor-Voigt (kbar):      -19.39       -0.51       -0.32       -0.36       -0.13       -0.05
(Free)E + p*V (eV/cell)     -896.4551
Target enthalpy (eV/cell)     -900.6609

siesta: Stress tensor (static) (eV/Ang**3):
        -0.001774   -0.000235   -0.000138
        -0.000235   -0.000075   -0.000089
        -0.000138   -0.000089   -0.000134

siesta: Pressure (static):          1.05888611  kBar

siesta: Stress tensor (total) (eV/Ang**3):
        -0.012100   -0.000224   -0.000033
        -0.000224   -0.000319   -0.000081
        -0.000033   -0.000081   -0.000198

siesta: Pressure (total):          6.73844904  kBar

siesta: Temp_ion =   13785.099 K

                     ====================================
                        Begin MD step =     11
                     ====================================

outcell: Unit cell vectors (Ang):
       10.000000    0.000000    0.000000
        0.000000   10.000000    0.000000
        0.000000    0.000000   10.000000

outcell: Cell vector modules (Ang)   :   10.000000   10.000000   10.000000
outcell: Cell angles (23,13,12) (deg):     90.0000     90.0000     90.0000
outcell: Cell volume (Ang**3)        :   1000.0000
 Folding of H and S is implicitly performed
<dSpData1D:S at geom step 11
  <sparsity:sparsity for geom step 11
    nrows_g=36 nrows=8 sparsity=.2176 nnzs=282, refcount: 7>
  <dData1D:(new from dSpData1D) n=282, refcount: 1>
refcount: 1>
New_DM. Step:    11
Re-using DM from previous geometries...
N DMs in history: 1
 DM extrapolation coefficients: 
1   1.00000
New DM after history re-use:
<dSpData2D:SpM extrapolated using coords
  <sparsity:sparsity for geom step 11
    nrows_g=36 nrows=8 sparsity=.2176 nnzs=282, refcount: 8>
  <dData2D:(temp array for extrapolation) n=282 m=1, refcount: 1>
refcount: 1>
No. of atoms with KB's overlaping orbs in proc 0. Max # of overlaps:       4      34
New grid distribution:   1
           1       1:   45    1:   23    1:   12
           2       1:   45    1:   23   13:   23
           3       1:   45    1:   23   24:   34
           4       1:   45    1:   23   35:   45
           5       1:   45   24:   45    1:   12
           6       1:   45   24:   45   13:   23
           7       1:   45   24:   45   24:   34
           8       1:   45   24:   45   35:   45

InitMesh: MESH =    90 x    90 x    90 =      729000
InitMesh: (bp) =    45 x    45 x    45 =       91125
InitMesh: Mesh cutoff (required, used) =   200.000   223.865 Ry
ExtMesh (bp) on 0 =   117 x    95 x    84 =      933660
New grid distribution:   2
           1       1:   14   15:   45    1:   14
           2       1:   14    1:   14   15:   45
           3      15:   45    1:   14   15:   45
           4       1:   13   15:   45   15:   45
           5      15:   45   15:   45    1:   14
           6      15:   45    1:   14    1:   14
           7      14:   45   15:   45   15:   45
           8       1:   14    1:   14    1:   14
New grid distribution:   3
           1      17:   45   17:   45    1:   16
           2      18:   45    1:   16    1:   16
           3      17:   45    1:   16   17:   45
           4       1:   16    1:   16   17:   45
           5       1:   16   17:   45    1:   16
           6       1:   17    1:   16    1:   16
           7      17:   45   17:   45   17:   45
           8       1:   16   17:   45   17:   45
[...]
----------------------------------------
   Max    4.986652    constrained

Stress-tensor-Voigt (kbar):       -1.05       -3.57        0.74        0.07       -4.65       -1.67
(Free)E + p*V (eV/cell)     -899.0284
Target enthalpy (eV/cell)     -899.8361

siesta: Stress tensor (static) (eV/Ang**3):
         0.000493    0.001473   -0.001552
         0.001473    0.001725   -0.004527
        -0.001552   -0.004527    0.005001

siesta: Pressure (static):         -3.85499011  kBar

siesta: Stress tensor (total) (eV/Ang**3):
        -0.000657    0.000043   -0.001040
         0.000043   -0.002227   -0.002903
        -0.001040   -0.002903    0.000461

siesta: Pressure (total):          1.29421203  kBar

siesta: Temp_ion =   11593.965 K

                     ====================================
                        Begin MD step =    198
                     ====================================

outcell: Unit cell vectors (Ang):
       10.000000    0.000000    0.000000
        0.000000   10.000000    0.000000
        0.000000    0.000000   10.000000

outcell: Cell vector modules (Ang)   :   10.000000   10.000000   10.000000
outcell: Cell angles (23,13,12) (deg):     90.0000     90.0000     90.0000
outcell: Cell volume (Ang**3)        :   1000.0000
<dSpData1D:S at geom step 198
  <sparsity:sparsity for geom step 198
    nrows_g=36 nrows=8 sparsity=.1852 nnzs=240, refcount: 7>
  <dData1D:(new from dSpData1D) n=240, refcount: 1>
refcount: 1>
New_DM. Step:   198
Re-using DM from previous geometries...
N DMs in history: 1
 DM extrapolation coefficients: 
1   1.00000
New DM after history re-use:
<dSpData2D:SpM extrapolated using coords
  <sparsity:sparsity for geom step 198
    nrows_g=36 nrows=8 sparsity=.1852 nnzs=240, refcount: 8>
  <dData2D:(temp array for extrapolation) n=240 m=1, refcount: 1>
refcount: 1>
No. of atoms with KB's overlaping orbs in proc 0. Max # of overlaps:       4      26
New grid distribution:   1
           1       1:   45    1:   23    1:   12
           2       1:   45    1:   23   13:   23
           3       1:   45    1:   23   24:   34
           4       1:   45    1:   23   35:   45
           5       1:   45   24:   45    1:   12
           6       1:   45   24:   45   13:   23
           7       1:   45   24:   45   24:   34
           8       1:   45   24:   45   35:   45

InitMesh: MESH =    90 x    90 x    90 =      729000
InitMesh: (bp) =    45 x    45 x    45 =       91125
InitMesh: Mesh cutoff (required, used) =   200.000   223.865 Ry
ExtMesh (bp) on 0 =   117 x    95 x    84 =      933660
New grid distribution:   2
           1      31:   45   15:   45    1:   15
           2       1:   12    1:   14    1:   15
           3       1:   31    1:   30   16:   45
           4      32:   45    1:   30   16:   45
           5       1:   30   15:   45    1:   15
           6      13:   45    1:   14    1:   15
           7       1:   33   31:   45   16:   45
           8      34:   45   31:   45   16:   45
New grid distribution:   3
           1      15:   45    1:   20    1:   17
           2       1:   15    1:   16   18:   45
           3      28:   45   17:   45   18:   45
           4      16:   45    1:   16   18:   45
           5       1:   27   21:   45    1:   17
           6      28:   45   21:   45    1:   17
           7       1:   27   17:   45   18:   45
           8       1:   14    1:   20    1:   17
Setting up quadratic distribution...
ExtMesh (bp) on 0 =    87 x   103 x    87 =      779607
PhiOnMesh: Number of (b)points on node 0 =                 6975
PhiOnMesh: nlist on node 0 =                56711

        iscf     Eharris(eV)        E_KS(eV)     FreeEng(eV)     dDmax    Ef(eV) dHmax(eV)
   scf:    1     -899.581483     -899.112002     -899.181309  0.584718 -8.315094  0.575920
   scf:    2     -899.114550     -899.113283     -899.182593  0.002674 -8.305440  0.554377
   scf:    3     -899.135274     -899.129229     -899.198365  0.077493 -8.018583  0.110604
   scf:    4     -899.131559     -899.131490     -899.200805  0.022625 -8.014306  0.081405
   scf:    5     -899.131495     -899.131514     -899.200826  0.007370 -8.010458  0.062391
   scf:    6     -899.131559     -899.131622     -899.200936  0.029242 -8.017977  0.025132
   scf:    7     -899.131645     -899.131636     -899.200949  0.004947 -8.013924  0.015458
   scf:    8     -899.131655     -899.131648     -899.200961  0.007126 -8.005298  0.007701
   scf:    9     -899.131667     -899.131666     -899.200980  0.002250 -8.006867  0.000573
   scf:   10     -899.131666     -899.131666     -899.200980  0.000014 -8.006832  0.000557

SCF Convergence by DM+H criterion
max |DM_out - DM_in|         :     0.0000136206
max |H_out - H_in|      (eV) :     0.0005571521
SCF cycle converged after 10 iterations

Using DM_out to compute the final energy and forces
No. of atoms with KB's overlaping orbs in proc 0. Max # of overlaps:       4      26

siesta: E_KS(eV) =             -899.1317

siesta: Atomic forces (eV/Ang):
----------------------------------------
   Tot   -0.004511   -0.004723   -0.005532
----------------------------------------
   Max    5.582055
   Res    3.561649    sqrt( Sum f_i^2 / 3N )
----------------------------------------
   Max    5.582055    constrained

Stress-tensor-Voigt (kbar):       -1.92       -2.28        1.29        0.50       -5.97       -0.78
(Free)E + p*V (eV/cell)     -898.5953
Target enthalpy (eV/cell)     -899.2010

siesta: Stress tensor (static) (eV/Ang**3):
        -0.000034    0.001737   -0.000872
         0.001737    0.002415   -0.005060
        -0.000872   -0.005060    0.004728

siesta: Pressure (static):         -3.79700423  kBar

siesta: Stress tensor (total) (eV/Ang**3):
        -0.001198    0.000315   -0.000486
         0.000315   -0.001426   -0.003724
        -0.000486   -0.003724    0.000807

siesta: Pressure (total):          0.97039074  kBar

siesta: Temp_ion =   10261.335 K

                     ====================================
                        Begin MD step =    199
                     ====================================

outcell: Unit cell vectors (Ang):
       10.000000    0.000000    0.000000
        0.000000   10.000000    0.000000
        0.000000    0.000000   10.000000

outcell: Cell vector modules (Ang)   :   10.000000   10.000000   10.000000
outcell: Cell angles (23,13,12) (deg):     90.0000     90.0000     90.0000
outcell: Cell volume (Ang**3)        :   1000.0000
<dSpData1D:S at geom step 199
  <sparsity:sparsity for geom step 199
    nrows_g=36 nrows=8 sparsity=.1844 nnzs=239, refcount: 7>
  <dData1D:(new from dSpData1D) n=239, refcount: 1>
refcount: 1>
New_DM. Step:   199
Re-using DM from previous geometries...
N DMs in history: 1
 DM extrapolation coefficients: 
1   1.00000
New DM after history re-use:
<dSpData2D:SpM extrapolated using coords
  <sparsity:sparsity for geom step 199
    nrows_g=36 nrows=8 sparsity=.1844 nnzs=239, refcount: 8>
  <dData2D:(temp array for extrapolation) n=239 m=1, refcount: 1>
refcount: 1>
Note: For starting DM, Qtot, Tr[D*S] =         14.00000000         13.87899710
No. of atoms with KB's overlaping orbs in proc 0. Max # of overlaps:       4      26
New grid distribution:   1
           1       1:   45    1:   23    1:   12
           2       1:   45    1:   23   13:   23
           3       1:   45    1:   23   24:   34
           4       1:   45    1:   23   35:   45
           5       1:   45   24:   45    1:   12
           6       1:   45   24:   45   13:   23
           7       1:   45   24:   45   24:   34
           8       1:   45   24:   45   35:   45

InitMesh: MESH =    90 x    90 x    90 =      729000
InitMesh: (bp) =    45 x    45 x    45 =       91125
InitMesh: Mesh cutoff (required, used) =   200.000   223.865 Ry
ExtMesh (bp) on 0 =   117 x    95 x    84 =      933660
New grid distribution:   2
           1      31:   45   15:   45    1:   15
           2       1:   13    1:   14    1:   15
           3       1:   31    1:   30   16:   45
           4      32:   45    1:   30   16:   45
           5       1:   30   15:   45    1:   15
           6      14:   45    1:   14    1:   15
           7       1:   33   31:   45   16:   45
           8      34:   45   31:   45   16:   45
New grid distribution:   3
           1      15:   45    1:   21    1:   17
           2       1:   15    1:   16   18:   45
           3      29:   45   17:   45   18:   45
           4      16:   45    1:   16   18:   45
           5       1:   28   22:   45    1:   17
           6      29:   45   22:   45    1:   17
           7       1:   28   17:   45   18:   45
           8       1:   14    1:   21    1:   17
Setting up quadratic distribution...
ExtMesh (bp) on 0 =    87 x   103 x    87 =      779607
PhiOnMesh: Number of (b)points on node 0 =                 6975
PhiOnMesh: nlist on node 0 =                56788

        iscf     Eharris(eV)        E_KS(eV)     FreeEng(eV)     dDmax    Ef(eV) dHmax(eV)
   scf:    1     -898.624055     -898.902785     -898.972062  0.195655 -7.258526  1.621186
   scf:    2     -898.910585     -898.906714     -898.976006  0.018772 -7.287253  1.555194
   scf:    3     -898.945751     -898.944945     -899.013501  0.495628 -8.110069  0.295089
   scf:    4     -898.952459     -898.954603     -899.023916  0.054412 -8.177132  0.224078
   scf:    5     -898.905605     -898.935102     -899.003997  0.149633 -8.446430  0.909091
   scf:    6     -898.958134     -898.948699     -899.017537  0.130965 -8.258837  0.321910
   scf:    7     -898.945427     -898.953752     -899.023029  0.126896 -8.092415  0.310508
   scf:    8     -898.956001     -898.955896     -899.025210  0.048174 -8.162220  0.040629
   scf:    9     -898.955781     -898.955859     -899.025173  0.010465 -8.162649  0.063153
   scf:   10     -898.955955     -898.955945     -899.025259  0.009494 -8.178025  0.001979
   scf:   11     -898.955945     -898.955945     -899.025260  0.000214 -8.177734  0.001231
   scf:   12     -898.955944     -898.955945     -899.025259  0.000333 -8.178054  0.001142
   scf:   13     -898.955945     -898.955945     -899.025260  0.000145 -8.178265  0.001302
   scf:   14     -898.955945     -898.955945     -899.025260  0.000067 -8.178362  0.001330
   scf:   15     -898.955945     -898.955945     -899.025260  0.000327 -8.178624  0.000881
   scf:   16     -898.955945     -898.955945     -899.025260  0.000085 -8.178786  0.000398

SCF Convergence by DM+H criterion
max |DM_out - DM_in|         :     0.0000849729
max |H_out - H_in|      (eV) :     0.0003976436
SCF cycle converged after 16 iterations

Using DM_out to compute the final energy and forces
No. of atoms with KB's overlaping orbs in proc 0. Max # of overlaps:       4      26

siesta: E_KS(eV) =             -898.9559

siesta: Atomic forces (eV/Ang):
----------------------------------------
   Tot   -0.003728   -0.004280   -0.001841
----------------------------------------
   Max    5.772706
   Res    2.853295    sqrt( Sum f_i^2 / 3N )
----------------------------------------
   Max    5.772706    constrained

Stress-tensor-Voigt (kbar):       -0.89       -0.45        8.04       -0.17       -4.78       -3.29
(Free)E + p*V (eV/cell)     -900.4202
Target enthalpy (eV/cell)     -899.0253

siesta: Stress tensor (static) (eV/Ang**3):
         0.000952    0.001428   -0.002698
         0.001428    0.002773   -0.004675
        -0.002698   -0.004675    0.008360

siesta: Pressure (static):         -6.45443921  kBar

siesta: Stress tensor (total) (eV/Ang**3):
        -0.000554   -0.000108   -0.002051
        -0.000108   -0.000281   -0.002983
        -0.002051   -0.002983    0.005020

siesta: Pressure (total):         -2.23501657  kBar

siesta: Temp_ion =    9514.520 K

                     ====================================
                        Begin MD step =    200
                     ====================================

outcell: Unit cell vectors (Ang):
       10.000000    0.000000    0.000000
        0.000000   10.000000    0.000000
        0.000000    0.000000   10.000000

outcell: Cell vector modules (Ang)   :   10.000000   10.000000   10.000000
outcell: Cell angles (23,13,12) (deg):     90.0000     90.0000     90.0000
outcell: Cell volume (Ang**3)        :   1000.0000
<dSpData1D:S at geom step 200
  <sparsity:sparsity for geom step 200
    nrows_g=36 nrows=8 sparsity=.1836 nnzs=238, refcount: 7>
  <dData1D:(new from dSpData1D) n=238, refcount: 1>
refcount: 1>
New_DM. Step:   200
Re-using DM from previous geometries...
N DMs in history: 1
 DM extrapolation coefficients: 
1   1.00000
New DM after history re-use:
<dSpData2D:SpM extrapolated using coords
  <sparsity:sparsity for geom step 200
    nrows_g=36 nrows=8 sparsity=.1836 nnzs=238, refcount: 8>
  <dData2D:(temp array for extrapolation) n=238 m=1, refcount: 1>
refcount: 1>
Note: For starting DM, Qtot, Tr[D*S] =         14.00000000         13.86127409
No. of atoms with KB's overlaping orbs in proc 0. Max # of overlaps:       4      26
New grid distribution:   1
           1       1:   45    1:   23    1:   12
           2       1:   45    1:   23   13:   23
           3       1:   45    1:   23   24:   34
           4       1:   45    1:   23   35:   45
           5       1:   45   24:   45    1:   12
           6       1:   45   24:   45   13:   23
           7       1:   45   24:   45   24:   34
           8       1:   45   24:   45   35:   45

InitMesh: MESH =    90 x    90 x    90 =      729000
InitMesh: (bp) =    45 x    45 x    45 =       91125
InitMesh: Mesh cutoff (required, used) =   200.000   223.865 Ry
ExtMesh (bp) on 0 =   117 x    95 x    84 =      933660
New grid distribution:   2
           1      14:   45    1:   14    1:   15
           2       1:   13    1:   14    1:   15
           3       1:   31    1:   30   16:   45
           4      32:   45    1:   30   16:   45
           5       1:   31   15:   45    1:   15
           6      32:   45   15:   45    1:   15
           7       1:   33   31:   45   16:   45
           8      34:   45   31:   45   16:   45
New grid distribution:   3
           1      28:   45   22:   45    1:   17
           2       1:   15    1:   16   18:   45
           3      29:   45   17:   45   18:   45
           4      16:   45    1:   16   18:   45
           5      15:   45    1:   21    1:   17
           6       1:   27   22:   45    1:   17
           7       1:   28   17:   45   18:   45
           8       1:   14    1:   21    1:   17
Setting up quadratic distribution...
ExtMesh (bp) on 0 =   104 x    86 x    87 =      778128
PhiOnMesh: Number of (b)points on node 0 =                 6720
PhiOnMesh: nlist on node 0 =                50675

        iscf     Eharris(eV)        E_KS(eV)     FreeEng(eV)     dDmax    Ef(eV) dHmax(eV)
   scf:    1     -897.433773     -898.040411     -898.109679  0.189206 -7.196217  1.992797
   scf:    2     -898.051376     -898.045940     -898.115227  0.020212 -7.230954  1.904321
   scf:    3     -898.091339     -898.095274     -898.163728  0.510389 -8.183900  0.464062
   scf:    4     -898.108410     -898.110458     -898.179754  0.053877 -8.303681  0.320623
   scf:    5     -897.944835     -898.047806     -898.116984  0.199908 -8.707557  1.698680
   scf:    6     -898.095340     -898.074611     -898.143313  0.080174 -8.584526  1.214408
   scf:    7     -898.056311     -898.102177     -898.171409  0.263257 -8.186135  0.625082
   scf:    8     -898.114136     -898.112914     -898.182229  0.075934 -8.305454  0.014361
   scf:    9     -898.111202     -898.112347     -898.181660  0.017690 -8.287796  0.134249
   scf:   10     -898.112830     -898.112934     -898.182249  0.009718 -8.309030  0.015536
   scf:   11     -898.112946     -898.112945     -898.182259  0.000865 -8.307696  0.001609
   scf:   12     -898.112945     -898.112945     -898.182259  0.000092 -8.307748  0.001556
   scf:   13     -898.112944     -898.112945     -898.182259  0.000392 -8.308179  0.001118
   scf:   14     -898.112945     -898.112945     -898.182259  0.000105 -8.308308  0.001104
   scf:   15     -898.112945     -898.112945     -898.182260  0.000575 -8.308911  0.001022
   scf:   16     -898.112945     -898.112945     -898.182260  0.000112 -8.308836  0.000687

SCF Convergence by DM+H criterion
max |DM_out - DM_in|         :     0.0001117864
max |H_out - H_in|      (eV) :     0.0006871642
SCF cycle converged after 16 iterations

Using DM_out to compute the final energy and forces
No. of atoms with KB's overlaping orbs in proc 0. Max # of overlaps:       4      26

siesta: E_KS(eV) =             -898.1129

siesta: Atomic forces (eV/Ang):
----------------------------------------
   Tot   -0.002271   -0.002195   -0.000040
----------------------------------------
   Max    5.844186
   Res    3.272213    sqrt( Sum f_i^2 / 3N )
----------------------------------------
   Max    5.844186    constrained

Stress-tensor-Voigt (kbar):        0.59        0.73       11.86        0.64       -6.10       -5.26
(Free)E + p*V (eV/cell)     -900.9255
Target enthalpy (eV/cell)     -898.1823

siesta: Stress tensor (static) (eV/Ang**3):
         0.002131    0.001964   -0.004138
         0.001964    0.003065   -0.005491
        -0.004138   -0.005491    0.010360

siesta: Pressure (static):         -8.30749025  kBar

siesta: Stress tensor (total) (eV/Ang**3):
         0.000371    0.000398   -0.003285
         0.000398    0.000454   -0.003805
        -0.003285   -0.003805    0.007405

siesta: Pressure (total):         -4.39515548  kBar

siesta: Temp_ion =    7493.784 K

coxmol: Writing XMOL coordinates into file xoc.xyz                                                             

siesta: Program's energy decomposition (eV):
siesta: Ebs     =      -199.944229
siesta: Eions   =      1592.294315
siesta: Ena     =       383.481820
siesta: Ekin    =       613.518909
siesta: Enl     =       -85.263434
siesta: Eso     =         0.000000
siesta: Eldau   =         0.000000
siesta: DEna    =       -18.674329
siesta: DUscf   =         0.895973
siesta: DUext   =         0.000000
siesta: Exc     =      -199.777570
siesta: eta*DQ  =         0.000000
siesta: Emadel  =         0.000000
siesta: Emeta   =         0.000000
siesta: Emolmec =         0.000000
siesta: Ekinion =         2.905827
siesta: Eharris =      -895.207118
siesta: Etot    =      -895.207118
siesta: FreeEng =      -895.276433

siesta: Final energy (eV):
siesta:  Band Struct. =    -199.944229
siesta:       Kinetic =     613.518909
siesta:       Hartree =     766.704238
siesta:       Eldau   =       0.000000
siesta:       Eso     =       0.000000
siesta:    Ext. field =       0.000000
siesta:   Exch.-corr. =    -199.777570
siesta:  Ion-electron =   -2092.629654
siesta:       Ion-ion =      14.071131
siesta:       Ekinion =       2.905827
siesta:         Total =    -895.207118
siesta:         Fermi =      -8.308836

siesta: Atomic forces (eV/Ang):
siesta:      1    1.710557    3.431693   -5.841479
siesta:      2   -1.711183   -3.429947    5.844186
siesta:      3   -2.427343   -0.919659    2.944439
siesta:      4    2.425699    0.915717   -2.947187
siesta: ----------------------------------------
siesta:    Tot   -0.002271   -0.002195   -0.000040

siesta: Stress tensor (static) (eV/Ang**3):
siesta:     0.002131    0.001964   -0.004138
siesta:     0.001964    0.003065   -0.005491
siesta:    -0.004138   -0.005491    0.010360

siesta: Cell volume =       1000.000000 Ang**3

siesta: Pressure (static):
siesta:                Solid            Molecule  Units
siesta:          -0.00005647         -0.00000002  Ry/Bohr**3
siesta:          -0.00518507         -0.00000153  eV/Ang**3
siesta:          -8.30749025         -0.00245731  kBar
(Free)E+ p_basis*V_orbitals  =        -895.973668
(Free)Eharris+ p_basis*V_orbitals  =        -895.973668

siesta: Electric dipole (a.u.)  =    0.000298   -0.000132    0.000695
siesta: Electric dipole (Debye) =    0.000757   -0.000336    0.001766
>> End of run:   6-MAY-2020  23:44:50
