--------------------------------------------------------------------------
WARNING: There is at least non-excluded one OpenFabrics device found,
but there are no active ports detected (or Open MPI was unable to use
them).  This is most certainly not what you wanted.  Check your
cables, subnet manager configuration, etc.  The openib BTL will be
ignored for this job.

  Local host: compute-0-4
--------------------------------------------------------------------------

                           ***********************       
                           *  WELCOME TO SIESTA  *       
                           ***********************       

reinit: Reading from standard input
reinit: Dumped input in INPUT_TMP.11980
************************** Dump of input data file ****************************
SystemName H2 + O2 -> H2O2 reaction # Descriptive name of the system
SystemLabel            xoc         # Short name for naming files
# Output options
#WriteCoorStep
#WriteMullikenPop       1
# Species and atoms
NumberOfSpecies       2
NumberOfAtoms         4
%block ChemicalSpeciesLabel
  1   8  O
  2   1  H
%endblock ChemicalSpeciesLabel
# Basis
%block PAO.Basis
O    3     -0.18518
 n=2   0   2   E    87.07381     4.73934
     7.32942     4.60369
     1.00000     1.00000
 n=2   1   2   E    68.29553     4.97037
     6.60250     3.04671
     1.00000     1.00000
 n=3   2   1   E    91.07115     3.95115
     6.89342
     1.00000
H     2      0.22
 n=1    0    2   E      2.07      0.00
   4.971   1.771
   1.000   1.000
 n=2    1    1   E      0.89      0.01
   4.988
   1.000
%endblock PAO.Basis
LatticeConstant       1.0000 Ang
%block LatticeVectors
20.00000   0.000000  0.000000
 0.00000  20.000000  0.000000
 0.00000   0.000000 20.000000
%endblock LatticeVectors
%block kgrid_Monkhorst_Pack
   1  0  0  0.
   0  1  0  0.
   0  0  1  0.
%endblock Kgrid_Monkhorst_Pack
xc.functional         GGA           # Exchange-correlation functional
xc.authors            PBE           # Exchange-correlation version
#SpinPolarized         true          # Logical parameters are: yes or no
MeshCutoff           200. Ry        # Mesh cutoff. real space mesh
# SCF options
#SCFMustConvergence     true
MaxSCFIterations       150          # Maximum number of SCF iter
DM.MixingWeight       0.02          # New DM amount for next SCF cycle
DM.Tolerance          3.d-4         # Tolerance in maximum difference
                                    # between input and output DM
DM.NumberPulay          6           # to use continuation files
#DM.NumberBroyden       3
#DM.AllowExtrapolation  false
UseSaveData           true
Diag.DivideAndConquer 	true
SolutionMethod        diagon        # OrderN or Diagon
ElectronicTemperature  25 meV       # Temp. for Fermi smearing
# -----------------------------
# MD options
#  options for a basic MD run
# -----------------------------
MD.TypeOfRun         verlet         # Standard Verlet algrithm
                                    # for Molecular Dynamics
#MD.InitialTemperature   700   K    #Assign initial random velocity from
                                    # a Maxwell-Boltzmann distribution
                                    # for a given temperature
UseSaveXV 		true        # use atomic Positions
                                    # and Velocities from
                                    # a saved XV file
MD.LengthTimeStep         2.0 fs    # time step integration
                                    # Newton eqs of motion
MD.Initial.Time.Step     1          #initial time step of MD
MD.FinalTimeStep         50        #Final time step of MD
WriteMDXmol            true         #Writes the coordinates
                                    #of all atoms at all steps
                                    #in a .ANI file
                                    #in xyz format
WriteMDhistory         true         #writes .MDE and .MD files
                                    # with output data from MD simulation
                                    # MDE contains: Temp, energy, volume, pressure
                                    # (human readable)
                                    # MD contains coords vel lattice vectors
                                    # (unformatted; post-process with iomd.f)
# Atomic coordinates
AtomicCoordinatesFormat     Ang
%block AtomicCoordinatesAndAtomicSpecies
        1.348000        0.000000        0.000000  1  ! O 1
        2.652000        0.000000        0.000000  1  ! O 2
        6.628000        0.000000        0.000000  2  ! H 3
        7.372000        0.000000        0.000000  2  ! H 4
%endblock AtomicCoordinatesAndAtomicSpecies
************************** End of input data file *****************************

reinit: -----------------------------------------------------------------------
reinit: System Name: H2 + O2 -> H2O2 reaction
reinit: -----------------------------------------------------------------------
reinit: System Label: xoc
reinit: -----------------------------------------------------------------------
Siesta Version: siesta-4.1--625
Architecture  : x86_64-linux-Intel
Compiler flags: mpifort -m64 -fPIC -O3 -ftree-vectorize -fexpensive-optimizations -funroll-looops -fprefetch-loop-arrays -fno-second-underscore  -flto
PP flags      : -I/home/nicpa/.nicpa_software/2016-oct-ompi/generic/build-tools/1.0/include --I/home/nicpa/.nicpa_software/2016-oct-ompi/generic/gmp/6.1.0/include -I/home/nicpa/.nicpa_software/2016-oct-ompi/generic/mpfr/3.1.4/include -I/home/nicpa/.nicpa_software/2016-oct-ompi/generic/mpc/1.0.3/include -I/home/nicpa/.nicpa_software/2016-oct-ompi/generic/isl/0.16.1/include -I/home/nicpa/.nicpa_software/2016-oct-ompi/generic/gcc/6.2.0/include -I/home/nicpa/.nicpa_software/2016-oct-ompi/generic/numactl/2.0.11/include -I/home/nicpa/.nicpa_software/2016-oct-ompi/zlib/1.2.8/gnu-6.2.0/include -I/home/nicpa/.nicpa_software/2016-oct-ompi/libxml2/2.9.4/gnu-6.2.0/include -I/home/nicpa/.nicpa_software/2016-oct-ompi/hwloc/1.11.4/gnu-6.2.0/include -I/home/nicpa/.nicpa_software/2016-oct-ompi/openmpi/2.0.1/gnu-6.2.0/include -I/home/nicpa/.nicpa_software/2016-oct-ompi/hdf5/1.8.17/gnu-6.2.0/include -I/home/nicpa/.nicpa_software/2016-oct-ompi/pnetcdf/1.7.0/gnu-6.2.0/include -I/home/nicpa/.nicpa_software/2016-oct-ompi/netcdf/4.4.1/gnu-6.2.0/include -I/home/nicpa/.nicpa_software/2016-oct-ompi/flook/0.5/gnu-6.2.0/include -I/home/nicpa/.nicpa_software/2016-oct-ompi/parmetis/4.0.3/gnu-6.2.0/include -I/home/nicpa/.nicpa_software/2016-oct-ompi/scalapack/204/gnu-6.2.0/include -I/home/nicpa/.nicpa_software/2016-oct-ompi/openblas/0.2.19/gnu-6.2.0/include -I/home/nicpa/.nicpa_software/2016-oct-ompi/mumps/5.0.2/gnu-6.2.0/include -I/home/nicpa/.nicpa_software/2016-oct-ompi/fftw/3.3.5/gnu-6.2.0/include -DMPI -DFC_HAVE_FLUSH -DFC_HAVE_ABORT -DCDF -DCDF4 -DSIESTA__FLOOK  -DNCDF -DNCDF_4 -DNCDF_PARALLEL -DSIESTA__METIS -D1 -DTS_NOCHECKS
Libraries     : -lnetcdff -lnetcdf -lpnetcdf -lhdf5_hl -lhdf5 -lz  -lzmumps -lmumps_common -llpord -lparmetis -lmetis -lscalapack -lopenblas   -L/home/nicpa/.nicpa_software/2016-oct-ompi/flook/0.5/gnu-6.2.0/lib -Wl,-rpath=/home/nicpa/.nicpa_software/2016-oct-ompi/flook/0.5/gnu-6.2.0/lib -lflookall -ldl  -flto -fuse-linker-plugin  -lmetis
PARALLEL version
NetCDF support
NetCDF-4 support
NetCDF-4 MPI-IO support
METIS ordering support

* Running on 8 nodes in parallel
>> Start of run:   6-MAY-2019  14:48:10

initatom: Reading input for the pseudopotentials and atomic orbitals ----------
Species number:   1 Atomic number:    8 Label: O
Species number:   2 Atomic number:    1 Label: H

Ground state valence configuration:   2s02  2p04
Reading pseudopotential information in formatted form from O.psf

Pseudopotential generated from a relativistic atomic calculation
There are spin-orbit pseudopotentials available
Spin-orbit interaction is not included in this calculation

Valence configuration for pseudopotential generation:
2s( 2.00) rc: 1.14
2p( 4.00) rc: 1.14
3d( 0.00) rc: 1.14
4f( 0.00) rc: 1.14
Ground state valence configuration:   1s01
Reading pseudopotential information in unformatted form from H.vps

Valence configuration for pseudopotential generation:
1s( 1.00) rc: 1.25
2p( 0.00) rc: 1.25
3d( 0.00) rc: 1.25
4f( 0.00) rc: 1.25
For O, standard SIESTA heuristics set lmxkb to 3
 (one more than the basis l, including polarization orbitals).
Use PS.lmax or PS.KBprojectors blocks to override.
For H, standard SIESTA heuristics set lmxkb to 2
 (one more than the basis l, including polarization orbitals).
Use PS.lmax or PS.KBprojectors blocks to override.

<basis_specs>
===============================================================================
O                    Z=   8    Mass=  16.000        Charge=-0.18518    
Lmxo=2 Lmxkb= 3    BasisType=split      Semic=F
L=0  Nsemic=0  Cnfigmx=2
          n=1  nzeta=2  polorb=0
            splnorm:   0.15000    
               vcte:    87.074    
               rinn:    4.7393    
               qcoe:    0.0000    
               qyuk:    0.0000    
               qwid:   0.10000E-01
                rcs:    7.3294      4.6037    
            lambdas:    1.0000      1.0000    
L=1  Nsemic=0  Cnfigmx=2
          n=1  nzeta=2  polorb=0
            splnorm:   0.15000    
               vcte:    68.296    
               rinn:    4.9704    
               qcoe:    0.0000    
               qyuk:    0.0000    
               qwid:   0.10000E-01
                rcs:    6.6025      3.0467    
            lambdas:    1.0000      1.0000    
L=2  Nsemic=0  Cnfigmx=3
          n=1  nzeta=1  polorb=0
            splnorm:   0.15000    
               vcte:    91.071    
               rinn:    3.9512    
               qcoe:    0.0000    
               qyuk:    0.0000    
               qwid:   0.10000E-01
                rcs:    6.8934    
            lambdas:    1.0000    
-------------------------------------------------------------------------------
L=0  Nkbl=1  erefs: 0.17977+309
L=1  Nkbl=1  erefs: 0.17977+309
L=2  Nkbl=1  erefs: 0.17977+309
L=3  Nkbl=1  erefs: 0.17977+309
===============================================================================
</basis_specs>

atom: Called for O                     (Z =   8)

read_vps: Pseudopotential generation method:
read_vps: ATM3      Troullier-Martins                       
Total valence charge:    6.00000

read_vps: Pseudopotential includes a core correction:
read_vps: Pseudo-core for xc-correction

xc_check: Exchange-correlation functional:
xc_check: GGA Perdew, Burke & Ernzerhof 1996
V l=0 = -2*Zval/r beyond r=  1.1278
V l=1 = -2*Zval/r beyond r=  1.1278
V l=2 = -2*Zval/r beyond r=  1.1278
V l=3 = -2*Zval/r beyond r=  1.1278
All V_l potentials equal beyond r=  1.1278
This should be close to max(r_c) in ps generation
All pots = -2*Zval/r beyond r=  1.1278

VLOCAL1: 99.0% of the norm of Vloc inside     34.126 Ry
VLOCAL1: 99.9% of the norm of Vloc inside     77.774 Ry
atom: Maximum radius for 4*pi*r*r*local-pseudopot. charge    1.37759
atom: Maximum radius for r*vlocal+2*Zval:    1.18566
GHOST: No ghost state for L =  0
GHOST: No ghost state for L =  1
GHOST: No ghost state for L =  2
GHOST: No ghost state for L =  3

KBgen: Kleinman-Bylander projectors: 
   l= 0   rc=  1.360471   el= -1.759790   Ekb=  9.210761   kbcos=  0.328866
   l= 1   rc=  1.360471   el= -0.663797   Ekb= -7.921990   kbcos= -0.392961
   l= 2   rc=  1.791199   el=  0.002031   Ekb= -1.950550   kbcos= -0.003498
   l= 3   rc=  2.107308   el=  0.003153   Ekb= -0.856060   kbcos= -0.000334

KBgen: Total number of  Kleinman-Bylander projectors:   16
atom: -------------------------------------------------------------------------

atom: SANKEY-TYPE ORBITALS:
atom: Selected multiple-zeta basis: split     

atom: basis set generated (by rescaling the valence charge)
atom: for an anion of charge  -0.1852

SPLIT: Orbitals with angular momentum L= 0

SPLIT: Basis orbitals for state 2s

   izeta = 1
                 lambda =    1.000000
                     rc =    7.356000
                 energy =   -1.758588
                kinetic =    1.491851
    potential(screened) =   -3.250439
       potential(ionic) =  -11.062471

   izeta = 2
                 rmatch =    4.690281
              splitnorm =    0.003309
                 energy =   -1.757602
* WARNING: effective split_norm is quite small. Orbitals will be very similar.
                kinetic =    1.574378
    potential(screened) =   -3.331980
       potential(ionic) =  -11.238433

SPLIT: Orbitals with angular momentum L= 1

SPLIT: Basis orbitals for state 2p

   izeta = 1
                 lambda =    1.000000
                     rc =    6.655955
                 energy =   -0.659921
                kinetic =    4.410674
    potential(screened) =   -5.070596
       potential(ionic) =  -12.498772

   izeta = 2
                 rmatch =    3.066256
              splitnorm =    0.127283
                 energy =   -0.537509
                kinetic =    6.271972
    potential(screened) =   -6.809481
       potential(ionic) =  -15.130217

SPLIT: Orbitals with angular momentum L= 2

SPLIT: Basis orbitals for state 3d

   izeta = 1
                 lambda =    1.000000
                     rc =    6.997229
                 energy =    0.764795
                kinetic =    1.136799
    potential(screened) =   -0.372004
       potential(ionic) =   -3.984199
atom: Total number of Sankey-type orbitals: 13

atm_pop: Valence configuration (for local Pseudopot. screening):
 2s( 2.00)                                                            
 2p( 4.00)                                                            
 3d( 0.00)                                                            
Vna: chval, zval:    6.00000   6.00000

Vna:  Cut-off radius for the neutral-atom potential:   7.356000
comcore: Pseudo-core radius Rcore=  1.377587

atom: _________________________________________________________________________

<basis_specs>
===============================================================================
H                    Z=   1    Mass=  1.0100        Charge= 0.22000    
Lmxo=1 Lmxkb= 2    BasisType=split      Semic=F
L=0  Nsemic=0  Cnfigmx=1
          n=1  nzeta=2  polorb=0
            splnorm:   0.15000    
               vcte:    2.0700    
               rinn:    0.0000    
               qcoe:    0.0000    
               qyuk:    0.0000    
               qwid:   0.10000E-01
                rcs:    4.9710      1.7710    
            lambdas:    1.0000      1.0000    
L=1  Nsemic=0  Cnfigmx=2
          n=1  nzeta=1  polorb=0
            splnorm:   0.15000    
               vcte:   0.89000    
               rinn:   0.10000E-01
               qcoe:    0.0000    
               qyuk:    0.0000    
               qwid:   0.10000E-01
                rcs:    4.9880    
            lambdas:    1.0000    
-------------------------------------------------------------------------------
L=0  Nkbl=1  erefs: 0.17977+309
L=1  Nkbl=1  erefs: 0.17977+309
L=2  Nkbl=1  erefs: 0.17977+309
===============================================================================
</basis_specs>

atom: Called for H                     (Z =   1)

read_vps: Pseudopotential generation method:
read_vps: ATM3      Troullier-Martins                       
Total valence charge:    1.00000

xc_check: Exchange-correlation functional:
xc_check: GGA Perdew, Burke & Ernzerhof 1996
V l=0 = -2*Zval/r beyond r=  1.2343
V l=1 = -2*Zval/r beyond r=  1.2189
V l=2 = -2*Zval/r beyond r=  1.2189
All V_l potentials equal beyond r=  1.2343
This should be close to max(r_c) in ps generation
All pots = -2*Zval/r beyond r=  1.2343

VLOCAL1: 99.0% of the norm of Vloc inside     28.493 Ry
VLOCAL1: 99.9% of the norm of Vloc inside     64.935 Ry
atom: Maximum radius for 4*pi*r*r*local-pseudopot. charge    1.45251
atom: Maximum radius for r*vlocal+2*Zval:    1.21892
GHOST: No ghost state for L =  0
GHOST: No ghost state for L =  1
GHOST: No ghost state for L =  2

KBgen: Kleinman-Bylander projectors: 
   l= 0   rc=  1.364359   el= -0.477200   Ekb= -2.021939   kbcos= -0.344793
   l= 1   rc=  1.434438   el=  0.001076   Ekb= -0.443447   kbcos= -0.022843
   l= 2   rc=  1.470814   el=  0.002010   Ekb= -0.140543   kbcos= -0.002863

KBgen: Total number of  Kleinman-Bylander projectors:    9
atom: -------------------------------------------------------------------------

atom: SANKEY-TYPE ORBITALS:
atom: Selected multiple-zeta basis: split     

atom: basis set generated (by rescaling the valence charge)
atom: for a cation of charge   0.2200

SPLIT: Orbitals with angular momentum L= 0

SPLIT: Basis orbitals for state 1s

   izeta = 1
                 lambda =    1.000000
                     rc =    4.950554
                 energy =   -0.678603
                kinetic =    1.118239
    potential(screened) =   -1.796842
       potential(ionic) =   -2.106311

   izeta = 2
                 rmatch =    1.774652
              splitnorm =    0.672347
                 energy =    1.027037
                kinetic =    4.730146
    potential(screened) =   -3.703109
       potential(ionic) =   -3.968059

SPLIT: Orbitals with angular momentum L= 1

SPLIT: Basis orbitals for state 2p

   izeta = 1
                 lambda =    1.000000
                     rc =    5.075940
                 energy =    0.310352
                kinetic =    0.887169
    potential(screened) =   -0.576817
       potential(ionic) =   -0.872649
atom: Total number of Sankey-type orbitals:  5

atm_pop: Valence configuration (for local Pseudopot. screening):
 1s( 1.00)                                                            
 2p( 0.00)                                                            
Vna: chval, zval:    1.00000   1.00000

Vna:  Cut-off radius for the neutral-atom potential:   4.950554

atom: _________________________________________________________________________

prinput: Basis input ----------------------------------------------------------

PAO.BasisType split     

%block ChemicalSpeciesLabel
    1    8 O                       # Species index, atomic number, species label
    2    1 H                       # Species index, atomic number, species label
%endblock ChemicalSpeciesLabel

%block PAO.Basis                 # Define Basis set
O                     3  -0.185            # Label, l-shells, ionic net charge
 n=2   0   2                         # n, l, Nzeta 
   7.356      4.690   
   1.000      1.000   
 n=2   1   2                         # n, l, Nzeta 
   6.656      3.066   
   1.000      1.000   
 n=3   2   1                         # n, l, Nzeta 
   6.997   
   1.000   
H                     2   0.220            # Label, l-shells, ionic net charge
 n=1   0   2                         # n, l, Nzeta 
   4.951      1.775   
   1.000      1.000   
 n=2   1   1                         # n, l, Nzeta 
   5.076   
   1.000   
%endblock PAO.Basis

prinput: ----------------------------------------------------------------------

Dumping basis to NetCDF file O.ion.nc
Dumping basis to NetCDF file H.ion.nc
coor:   Atomic-coordinates input format  =     Cartesian coordinates
coor:                                          (in Angstroms)

ioxv: Reading coordinates and velocities from file
! Info in XV file prevails over previous structure input
WARNING: xoc.VERLET_RESTART not found--reading only XV file and moving back 1 time step using Euler

siesta: Atomic coordinates (Bohr) and species
siesta:      2.53861   0.01370  -0.00361  1        1
siesta:      5.02027  -0.01563   0.00224  1        2
siesta:     13.33815   0.04901   0.06223  2        3
siesta:     14.77853  -0.01782  -0.03964  2        4

siesta: System type = chain     

initatomlists: Number of atoms, orbitals, and projectors:      4    36    50

siesta: ******************** Simulation parameters ****************************
siesta:
siesta: The following are some of the parameters of the simulation.
siesta: A complete list of the parameters used, including default values,
siesta: can be found in file out.fdf
siesta:
redata: Spin configuration                          = none
redata: Number of spin components                   = 1
redata: Time-Reversal Symmetry                      = T
redata: Spin-spiral                                 = F
redata: Long output                                 =   F
redata: Number of Atomic Species                    =        2
redata: Charge density info will appear in .RHO file
redata: Write Mulliken Pop.                         = NO
redata: Mesh Cutoff                                 =   200.0000 Ry
redata: Net charge of the system                    =     0.0000 |e|
redata: Min. number of SCF Iter                     =        0
redata: Max. number of SCF Iter                     =      150
redata: SCF mix quantity                            = Hamiltonian
redata: Mix DM or H after convergence               =   F
redata: Recompute H after scf cycle                 =   F
redata: Mix DM in first SCF step                    =   T
redata: Write Pulay info on disk                    =   F
redata: New DM Mixing Weight                        =     0.0200
redata: New DM Occupancy tolerance                  = 0.000000000001
redata: No kicks to SCF
redata: DM Mixing Weight for Kicks                  =     0.5000
redata: Require Harris convergence for SCF          =   F
redata: Harris energy tolerance for SCF             =     0.000100 eV
redata: Require DM convergence for SCF              =   T
redata: DM tolerance for SCF                        =     0.0003
redata: Require EDM convergence for SCF             =   F
redata: EDM tolerance for SCF                       =     0.001000 eV
redata: Require H convergence for SCF               =   T
redata: Hamiltonian tolerance for SCF               =     0.001000 eV
redata: Require (free) Energy convergence for SCF   =   F
redata: (free) Energy tolerance for SCF             =     0.000100 eV
redata: Using Saved Data (generic)                  =   T
redata: Use continuation files for DM               =   T
redata: Neglect nonoverlap interactions             =   F
redata: Method of Calculation                       = Diagonalization
redata: Divide and Conquer                          =   T
redata: Electronic Temperature                      =   290.1109 K
redata: Fix the spin of the system                  =   F
redata: Dynamics option                             = Verlet MD run
redata: Initial MD time step                        =        1
redata:   Final MD time step                        =       50
redata: Length of MD time step                      =     2.0000 fs
redata: Initial Temperature of MD run               =     0.0000 K
redata: Perform a MD quench                         =   F
mix.SCF: Pulay mixing                            = Pulay
mix.SCF:    Variant                              = stable
mix.SCF:    History steps                        = 6
mix.SCF:    Linear mixing weight                 =     0.020000
mix.SCF:    Mixing weight                        =     0.020000
mix.SCF:    SVD condition                        = 0.1000E-07
redata: Save all siesta data in one NC              =   F
redata: ***********************************************************************

%block SCF.Mixers
  Pulay                   
%endblock SCF.Mixers

%block SCF.Mixer.Pulay
  # Mixing method
  method pulay
  variant stable

  # Mixing options
  weight 0.0200
  weight.linear 0.0200
  history 6
  restart 0
  restart.save 1

  # Continuation options
%endblock SCF.Mixer.Pulay

Size of DM history Fstack: 1
Total number of electrons:    14.000000
Total ionic charge:    14.000000

* ProcessorY, Blocksize:    2   4


* Orbital distribution balance (max,min):     8     4

 Kpoints in:            1 . Kpoints trimmed:            1

siesta: k-grid: Number of k-points =     1
siesta: k-grid: Cutoff (effective) =     5.000 Ang
siesta: k-grid: Supercell and displacements
siesta: k-grid:    1   0   0      0.000
siesta: k-grid:    0   1   0      0.000
siesta: k-grid:    0   0   1      0.000


                     ====================================
                        Begin MD step =      1
                     ====================================

outcell: Unit cell vectors (Ang):
       10.000000    0.000000    0.000000
        0.000000   10.000000    0.000000
        0.000000    0.000000   10.000000

outcell: Cell vector modules (Ang)   :   10.000000   10.000000   10.000000
outcell: Cell angles (23,13,12) (deg):     90.0000     90.0000     90.0000
outcell: Cell volume (Ang**3)        :   1000.0000
 Folding of H and S is implicitly performed
<dSpData1D:S at geom step 1
  <sparsity:sparsity for geom step 1
    nrows_g=36 nrows=8 sparsity=.2122 nnzs=275, refcount: 7>
  <dData1D:(new from dSpData1D) n=275, refcount: 1>
refcount: 1>
New_DM. Step:     1
Initializing Density Matrix...
Attempting to read DM from file... Failed...
DM after filling with atomic data:
<dSpData2D:(DM initialized from atoms)
  <sparsity:sparsity for geom step 1
    nrows_g=36 nrows=8 sparsity=.2122 nnzs=275, refcount: 8>
  <dData2D:(DMatomic) n=275 m=1, refcount: 1>
refcount: 1>
No. of atoms with KB's overlaping orbs in proc 0. Max # of overlaps:       4      30
New grid distribution:   1
           1       1:   45    1:   23    1:   12
           2       1:   45    1:   23   13:   23
           3       1:   45    1:   23   24:   34
           4       1:   45    1:   23   35:   45
           5       1:   45   24:   45    1:   12
           6       1:   45   24:   45   13:   23
           7       1:   45   24:   45   24:   34
           8       1:   45   24:   45   35:   45

InitMesh: MESH =    90 x    90 x    90 =      729000
InitMesh: (bp) =    45 x    45 x    45 =       91125
InitMesh: Mesh cutoff (required, used) =   200.000   223.865 Ry
ExtMesh (bp) on 0 =   117 x    95 x    84 =      933660
New grid distribution:   2
           1      14:   45    1:   14    1:   14
           2       1:   13    1:   14   15:   45
           3      14:   45    1:   14   15:   45
           4       1:   13   15:   45   15:   45
           5      14:   45   15:   45    1:   14
           6       1:   13   15:   45    1:   14
           7      14:   45   15:   45   15:   45
           8       1:   13    1:   14    1:   14
New grid distribution:   3
           1      19:   45    1:   16    1:   16
           2       1:   17    1:   16   17:   45
           3       1:   16   17:   45   17:   45
           4      18:   45    1:   16   17:   45
           5      18:   45   17:   45    1:   16
           6       1:   17   17:   45    1:   16
           7      17:   45   17:   45   17:   45
           8       1:   18    1:   16    1:   16
Setting up quadratic distribution...
ExtMesh (bp) on 0 =   104 x    86 x    86 =      769184
PhiOnMesh: Number of (b)points on node 0 =                 6272
PhiOnMesh: nlist on node 0 =                62383

stepf: Fermi-Dirac step function

siesta: Program's energy decomposition (eV):
siesta: Ebs     =      -190.551632
siesta: Eions   =      1592.294315
siesta: Ena     =       380.196263
siesta: Ekin    =       661.861051
siesta: Enl     =       -99.636230
siesta: Eso     =         0.000000
siesta: Eldau   =         0.000000
siesta: DEna    =       -42.483440
siesta: DUscf   =         2.933648
siesta: DUext   =         0.000000
siesta: Exc     =      -210.499612
siesta: eta*DQ  =         0.000000
siesta: Emadel  =         0.000000
siesta: Emeta   =         0.000000
siesta: Emolmec =         0.000000
siesta: Ekinion =         0.000000
siesta: Eharris =      -900.942352
siesta: Etot    =      -899.922634
siesta: FreeEng =      -899.991949

        iscf     Eharris(eV)        E_KS(eV)     FreeEng(eV)     dDmax    Ef(eV) dHmax(eV)
   scf:    1     -900.942352     -899.922634     -899.991949  3.588626 -9.477002  4.691857
timer: Routine,Calls,Time,% = IterSCF        1       0.827  31.50
   scf:    2     -900.003499     -899.963191     -900.032506  0.061652 -9.387731  4.534173
   scf:    3     -900.957710     -900.586253     -900.655568  2.404369 -6.847888  0.539847
   scf:    4     -900.044658     -900.363685     -900.432998  1.845627 -5.518814  3.217819
   scf:    5     -900.741702     -900.590753     -900.660066  1.372431 -6.659341  0.586062
   scf:    6     -900.598428     -900.594814     -900.664129  0.095079 -6.748760  0.373908
   scf:    7     -900.572008     -900.588355     -900.657665  0.463370 -7.192841  0.623136
   scf:    8     -900.600365     -900.595004     -900.664310  0.138414 -7.047855  0.328575
   scf:    9     -900.597016     -900.596046     -900.665350  0.039592 -7.009585  0.250610
   scf:   10     -900.598334     -900.597524     -900.666839  0.089741 -6.905623  0.021726
   scf:   11     -900.597540     -900.597534     -900.666849  0.008951 -6.896334  0.002748
   scf:   12     -900.597534     -900.597534     -900.666849  0.000101 -6.896291  0.002865
   scf:   13     -900.597534     -900.597534     -900.666849  0.000185 -6.895929  0.003133
   scf:   14     -900.597534     -900.597534     -900.666849  0.000268 -6.895816  0.002433
   scf:   15     -900.597534     -900.597534     -900.666849  0.000258 -6.895525  0.001852
   scf:   16     -900.597533     -900.597534     -900.666849  0.000705 -6.895056  0.001092
   scf:   17     -900.597534     -900.597534     -900.666849  0.000030 -6.895034  0.000991

SCF Convergence by DM+H criterion
max |DM_out - DM_in|         :     0.0000303731
max |H_out - H_in|      (eV) :     0.0009913432
SCF cycle converged after 17 iterations

Using DM_out to compute the final energy and forces
No. of atoms with KB's overlaping orbs in proc 0. Max # of overlaps:       4      30

siesta: E_KS(eV) =             -900.5975

siesta: E_KS - E_eggbox =      -900.5975

siesta: Atomic forces (eV/Ang):
----------------------------------------
   Tot    0.002127    0.000534    0.000405
----------------------------------------
   Max    0.706931
   Res    0.354496    sqrt( Sum f_i^2 / 3N )
----------------------------------------
   Max    0.706931    constrained

Stress-tensor-Voigt (kbar):      -14.24       -0.41       -0.24        0.21       -0.09       -0.01
(Free)E + p*V (eV/cell)     -897.5678
Target enthalpy (eV/cell)     -900.6668

siesta: Stress tensor (static) (eV/Ang**3):
         0.001310   -0.000033   -0.000036
        -0.000033    0.000007    0.000002
        -0.000036    0.000002    0.000009

siesta: Pressure (static):         -0.70818570  kBar

siesta: Stress tensor (total) (eV/Ang**3):
        -0.008888    0.000131   -0.000007
         0.000131   -0.000258   -0.000058
        -0.000007   -0.000058   -0.000151

siesta: Pressure (total):          4.96528909  kBar

siesta: Temp_ion =   13797.487 K

                     ====================================
                        Begin MD step =      2
                     ====================================

outcell: Unit cell vectors (Ang):
       10.000000    0.000000    0.000000
        0.000000   10.000000    0.000000
        0.000000    0.000000   10.000000

outcell: Cell vector modules (Ang)   :   10.000000   10.000000   10.000000
outcell: Cell angles (23,13,12) (deg):     90.0000     90.0000     90.0000
outcell: Cell volume (Ang**3)        :   1000.0000
 Folding of H and S is implicitly performed
<dSpData1D:S at geom step 2
  <sparsity:sparsity for geom step 2
    nrows_g=36 nrows=8 sparsity=.2076 nnzs=269, refcount: 7>
  <dData1D:(new from dSpData1D) n=269, refcount: 1>
refcount: 1>
New_DM. Step:     2
Re-using DM from previous geometries...
N DMs in history: 1
 DM extrapolation coefficients: 
1   1.00000
New DM after history re-use:
<dSpData2D:SpM extrapolated using coords
  <sparsity:sparsity for geom step 2
    nrows_g=36 nrows=8 sparsity=.2076 nnzs=269, refcount: 8>
  <dData2D:(temp array for extrapolation) n=269 m=1, refcount: 1>
refcount: 1>
Note: For starting DM, Qtot, Tr[D*S] =         14.00000000         14.05414647
No. of atoms with KB's overlaping orbs in proc 0. Max # of overlaps:       4      26
New grid distribution:   1
           1       1:   45    1:   23    1:   12
           2       1:   45    1:   23   13:   23
           3       1:   45    1:   23   24:   34
           4       1:   45    1:   23   35:   45
           5       1:   45   24:   45    1:   12
           6       1:   45   24:   45   13:   23
           7       1:   45   24:   45   24:   34
           8       1:   45   24:   45   35:   45

InitMesh: MESH =    90 x    90 x    90 =      729000
InitMesh: (bp) =    45 x    45 x    45 =       91125
InitMesh: Mesh cutoff (required, used) =   200.000   223.865 Ry
ExtMesh (bp) on 0 =   117 x    95 x    84 =      933660
New grid distribution:   2
           1      14:   45    1:   14    1:   14
           2       1:   13    1:   14   15:   45
           3      14:   45    1:   14   15:   45
           4       1:   13   15:   45   15:   45
           5      14:   45   15:   45    1:   14
           6       1:   13   15:   45    1:   14
           7      14:   45   15:   45   15:   45
           8       1:   13    1:   14    1:   14
New grid distribution:   3
           1      19:   45    1:   16    1:   16
           2       1:   17    1:   16   17:   45
           3       1:   17   17:   45   17:   45
           4      18:   45    1:   16   17:   45
           5      18:   45   17:   45    1:   16
           6       1:   17   17:   45    1:   16
           7      18:   45   17:   45   17:   45
           8       1:   18    1:   16    1:   16
Setting up quadratic distribution...
ExtMesh (bp) on 0 =   104 x    86 x    86 =      769184
PhiOnMesh: Number of (b)points on node 0 =                 6272
PhiOnMesh: nlist on node 0 =                62624

        iscf     Eharris(eV)        E_KS(eV)     FreeEng(eV)     dDmax    Ef(eV) dHmax(eV)
   scf:    1     -900.379036     -900.559295     -900.628610  0.357091 -7.178784  0.724141
   scf:    2     -900.560592     -900.559946     -900.629261  0.012012 -7.165903  0.698017
   scf:    3     -900.572489     -900.568496     -900.637808  0.361648 -6.792033  0.105201
   scf:    4     -900.568559     -900.568688     -900.637998  0.013421 -6.804364  0.091439
   scf:    5     -900.567064     -900.568041     -900.637355  0.106603 -6.696999  0.189604
   scf:    6     -900.568037     -900.568039     -900.637353  0.000094 -6.696911  0.189806
   scf:    7     -900.568016     -900.568517     -900.637831  0.139766 -6.826654  0.126304
   scf:    8     -900.568554     -900.568548     -900.637862  0.003133 -6.825718  0.112441
   scf:    9     -900.568968     -900.568822     -900.638137  0.048500 -6.773339  0.000444
   scf:   10     -900.568822     -900.568822     -900.638137  0.000100 -6.773222  0.000415

SCF Convergence by DM+H criterion
max |DM_out - DM_in|         :     0.0001004244
max |H_out - H_in|      (eV) :     0.0004151429
SCF cycle converged after 10 iterations

Using DM_out to compute the final energy and forces
No. of atoms with KB's overlaping orbs in proc 0. Max # of overlaps:       4      26

siesta: E_KS(eV) =             -900.5688

siesta: Atomic forces (eV/Ang):
----------------------------------------
   Tot    0.000477    0.000383    0.000289
----------------------------------------
   Max    1.571442
   Res    0.693124    sqrt( Sum f_i^2 / 3N )
----------------------------------------
   Max    1.571442    constrained

Stress-tensor-Voigt (kbar):      -19.20       -0.42       -0.26        0.15       -0.10       -0.09
(Free)E + p*V (eV/cell)     -896.5028
Target enthalpy (eV/cell)     -900.6381

siesta: Stress tensor (static) (eV/Ang**3):
        -0.001784   -0.000067   -0.000086
        -0.000067    0.000003   -0.000005
        -0.000086   -0.000005   -0.000001

siesta: Pressure (static):          0.95218465  kBar

siesta: Stress tensor (total) (eV/Ang**3):
        -0.011982    0.000096   -0.000057
         0.000096   -0.000263   -0.000065
        -0.000057   -0.000065   -0.000161

siesta: Pressure (total):          6.62565945  kBar

siesta: Temp_ion =   13794.278 K

                     ====================================
                        Begin MD step =      3
                     ====================================

outcell: Unit cell vectors (Ang):
       10.000000    0.000000    0.000000
        0.000000   10.000000    0.000000
        0.000000    0.000000   10.000000

outcell: Cell vector modules (Ang)   :   10.000000   10.000000   10.000000
outcell: Cell angles (23,13,12) (deg):     90.0000     90.0000     90.0000
outcell: Cell volume (Ang**3)        :   1000.0000
 Folding of H and S is implicitly performed
<dSpData1D:S at geom step 3
  <sparsity:sparsity for geom step 3
    nrows_g=36 nrows=8 sparsity=.2060 nnzs=267, refcount: 7>
  <dData1D:(new from dSpData1D) n=267, refcount: 1>
refcount: 1>
New_DM. Step:     3
Re-using DM from previous geometries...
N DMs in history: 1
 DM extrapolation coefficients: 
1   1.00000
New DM after history re-use:
<dSpData2D:SpM extrapolated using coords
  <sparsity:sparsity for geom step 3
    nrows_g=36 nrows=8 sparsity=.2060 nnzs=267, refcount: 8>
  <dData2D:(temp array for extrapolation) n=267 m=1, refcount: 1>
refcount: 1>
Note: For starting DM, Qtot, Tr[D*S] =         14.00000000         13.94919187
No. of atoms with KB's overlaping orbs in proc 0. Max # of overlaps:       4      30
New grid distribution:   1
           1       1:   45    1:   23    1:   12
           2       1:   45    1:   23   13:   23
           3       1:   45    1:   23   24:   34
           4       1:   45    1:   23   35:   45
           5       1:   45   24:   45    1:   12
           6       1:   45   24:   45   13:   23
           7       1:   45   24:   45   24:   34
           8       1:   45   24:   45   35:   45

InitMesh: MESH =    90 x    90 x    90 =      729000
InitMesh: (bp) =    45 x    45 x    45 =       91125
InitMesh: Mesh cutoff (required, used) =   200.000   223.865 Ry
ExtMesh (bp) on 0 =   117 x    95 x    84 =      933660
New grid distribution:   2
           1      15:   45    1:   14    1:   14
           2       1:   13    1:   14   15:   45
           3      14:   45    1:   14   15:   45
           4       1:   13   15:   45   15:   45
           5      14:   45   15:   45    1:   14
           6       1:   13   15:   45    1:   14
           7      14:   45   15:   45   15:   45
           8       1:   14    1:   14    1:   14
New grid distribution:   3
           1      19:   45    1:   16    1:   16
           2       1:   17    1:   16   17:   45
           3       1:   16   17:   45   17:   45
           4      18:   45    1:   16   17:   45
           5      18:   45   17:   45    1:   16
           6       1:   17   17:   45    1:   16
           7      17:   45   17:   45   17:   45
           8       1:   18    1:   16    1:   16
Setting up quadratic distribution...
ExtMesh (bp) on 0 =   103 x    86 x    86 =      761788
PhiOnMesh: Number of (b)points on node 0 =                 6076
PhiOnMesh: nlist on node 0 =                59009

        iscf     Eharris(eV)        E_KS(eV)     FreeEng(eV)     dDmax    Ef(eV) dHmax(eV)
   scf:    1     -899.867577     -900.541712     -900.611025  0.841927 -6.108466  1.123434
   scf:    2     -900.544664     -900.543196     -900.612510  0.011816 -6.126745  1.079456
   scf:    3     -900.564872     -900.559868     -900.629159  0.319593 -6.639248  0.180009
   scf:    4     -900.557786     -900.560422     -900.629679  0.031296 -6.695337  0.131466
   scf:    5     -900.554540     -900.557769     -900.626907  0.043250 -6.769894  0.303392
   scf:    6     -900.560981     -900.560373     -900.629688  0.032898 -6.758788  0.241510
   scf:    7     -900.561729     -900.561531     -900.630844  0.103608 -6.648816  0.067521
   scf:    8     -900.561575     -900.561578     -900.630893  0.004033 -6.649208  0.048408
   scf:    9     -900.561639     -900.561620     -900.630934  0.021906 -6.673028  0.001554
   scf:   10     -900.561620     -900.561620     -900.630935  0.000210 -6.672825  0.000548

SCF Convergence by DM+H criterion
max |DM_out - DM_in|         :     0.0002103722
max |H_out - H_in|      (eV) :     0.0005481154
SCF cycle converged after 10 iterations

Using DM_out to compute the final energy and forces
No. of atoms with KB's overlaping orbs in proc 0. Max # of overlaps:       4      30

siesta: E_KS(eV) =             -900.5616

siesta: Atomic forces (eV/Ang):
----------------------------------------
   Tot   -0.000904   -0.000371    0.000244
----------------------------------------
   Max    1.687965
   Res    0.840280    sqrt( Sum f_i^2 / 3N )
----------------------------------------
   Max    1.687965    constrained

Stress-tensor-Voigt (kbar):      -18.15       -0.40       -0.20        0.30       -0.07        0.32
(Free)E + p*V (eV/cell)     -896.7294
Target enthalpy (eV/cell)     -900.6309

siesta: Stress tensor (static) (eV/Ang**3):
        -0.001159    0.000053    0.000217
         0.000053    0.000021    0.000031
         0.000217    0.000031    0.000053

siesta: Pressure (static):          0.57885839  kBar

siesta: Stress tensor (total) (eV/Ang**3):
        -0.011326    0.000185    0.000200
         0.000185   -0.000252   -0.000041
         0.000200   -0.000041   -0.000126

siesta: Pressure (total):          6.25101384  kBar

siesta: Temp_ion =   13736.650 K

                     ====================================
                        Begin MD step =      4
                     ====================================

outcell: Unit cell vectors (Ang):
       10.000000    0.000000    0.000000
        0.000000   10.000000    0.000000
        0.000000    0.000000   10.000000

outcell: Cell vector modules (Ang)   :   10.000000   10.000000   10.000000
outcell: Cell angles (23,13,12) (deg):     90.0000     90.0000     90.0000
outcell: Cell volume (Ang**3)        :   1000.0000
 Folding of H and S is implicitly performed
<dSpData1D:S at geom step 4
  <sparsity:sparsity for geom step 4
    nrows_g=36 nrows=8 sparsity=.2045 nnzs=265, refcount: 7>
  <dData1D:(new from dSpData1D) n=265, refcount: 1>
refcount: 1>
New_DM. Step:     4
Re-using DM from previous geometries...
N DMs in history: 1
 DM extrapolation coefficients: 
1   1.00000
New DM after history re-use:
<dSpData2D:SpM extrapolated using coords
  <sparsity:sparsity for geom step 4
    nrows_g=36 nrows=8 sparsity=.2045 nnzs=265, refcount: 8>
  <dData2D:(temp array for extrapolation) n=265 m=1, refcount: 1>
refcount: 1>
No. of atoms with KB's overlaping orbs in proc 0. Max # of overlaps:       4      30
New grid distribution:   1
           1       1:   45    1:   23    1:   12
           2       1:   45    1:   23   13:   23
           3       1:   45    1:   23   24:   34
           4       1:   45    1:   23   35:   45
           5       1:   45   24:   45    1:   12
           6       1:   45   24:   45   13:   23
           7       1:   45   24:   45   24:   34
           8       1:   45   24:   45   35:   45

InitMesh: MESH =    90 x    90 x    90 =      729000
InitMesh: (bp) =    45 x    45 x    45 =       91125
InitMesh: Mesh cutoff (required, used) =   200.000   223.865 Ry
ExtMesh (bp) on 0 =   117 x    95 x    84 =      933660
New grid distribution:   2
           1      15:   45    1:   14    1:   14
           2       1:   13    1:   14   15:   45
           3      14:   45    1:   14   15:   45
           4       1:   13   15:   45   15:   45
           5      14:   45   15:   45    1:   14
           6       1:   13   15:   45    1:   14
           7      14:   45   15:   45   15:   45
           8       1:   14    1:   14    1:   14
New grid distribution:   3
           1      19:   45    1:   16    1:   16
           2       1:   17    1:   16   17:   45
           3       1:   16   17:   45   17:   45
           4      18:   45    1:   16   17:   45
           5      18:   45   17:   45    1:   16
           6       1:   17   17:   45    1:   16
           7      17:   45   17:   45   17:   45
           8       1:   18    1:   16    1:   16
Setting up quadratic distribution...
ExtMesh (bp) on 0 =   103 x    86 x    86 =      761788
PhiOnMesh: Number of (b)points on node 0 =                 6076
PhiOnMesh: nlist on node 0 =                59072

        iscf     Eharris(eV)        E_KS(eV)     FreeEng(eV)     dDmax    Ef(eV) dHmax(eV)
   scf:    1     -900.355260     -900.544799     -900.614104  0.898149 -6.570413  0.129358
   scf:    2     -900.544953     -900.544879     -900.614188  0.002179 -6.572185  0.121683
   scf:    3     -900.540063     -900.543713     -900.612890  0.040653 -6.613947  0.075895
   scf:    4     -900.544426     -900.545278     -900.614585  0.039512 -6.622645  0.025365
   scf:    5     -900.545361     -900.545383     -900.614698  0.008892 -6.627765  0.012290
   scf:    6     -900.545384     -900.545384     -900.614698  0.000080 -6.627440  0.011358
   scf:    7     -900.545396     -900.545392     -900.614706  0.008838 -6.623396  0.001810
   scf:    8     -900.545392     -900.545392     -900.614706  0.000327 -6.623698  0.002015
   scf:    9     -900.545391     -900.545392     -900.614706  0.000696 -6.624061  0.000855
   scf:   10     -900.545392     -900.545392     -900.614706  0.000161 -6.624143  0.000587

SCF Convergence by DM+H criterion
max |DM_out - DM_in|         :     0.0001608515
max |H_out - H_in|      (eV) :     0.0005867676
SCF cycle converged after 10 iterations

Using DM_out to compute the final energy and forces
No. of atoms with KB's overlaping orbs in proc 0. Max # of overlaps:       4      30

siesta: E_KS(eV) =             -900.5454

siesta: Atomic forces (eV/Ang):
----------------------------------------
   Tot   -0.000265   -0.000055    0.000129
----------------------------------------
   Max    2.186445
   Res    1.068030    sqrt( Sum f_i^2 / 3N )
----------------------------------------
   Max    2.186445    constrained

Stress-tensor-Voigt (kbar):      -18.98       -0.35       -0.03        0.24        0.05        0.58
(Free)E + p*V (eV/cell)     -896.5864
Target enthalpy (eV/cell)     -900.6147

siesta: Stress tensor (static) (eV/Ang**3):
        -0.001704    0.000067    0.000395
         0.000066    0.000051    0.000093
         0.000395    0.000093    0.000145

siesta: Pressure (static):          0.80568535  kBar

siesta: Stress tensor (total) (eV/Ang**3):
        -0.011848    0.000148    0.000362
         0.000148   -0.000218    0.000032
         0.000362    0.000032   -0.000018

siesta: Pressure (total):          6.45414440  kBar

siesta: Temp_ion =   13710.860 K

                     ====================================
                        Begin MD step =      5
                     ====================================

outcell: Unit cell vectors (Ang):
       10.000000    0.000000    0.000000
        0.000000   10.000000    0.000000
        0.000000    0.000000   10.000000

outcell: Cell vector modules (Ang)   :   10.000000   10.000000   10.000000
outcell: Cell angles (23,13,12) (deg):     90.0000     90.0000     90.0000
outcell: Cell volume (Ang**3)        :   1000.0000
 Folding of H and S is implicitly performed
<dSpData1D:S at geom step 5
  <sparsity:sparsity for geom step 5
    nrows_g=36 nrows=8 sparsity=.2153 nnzs=279, refcount: 7>
  <dData1D:(new from dSpData1D) n=279, refcount: 1>
refcount: 1>
New_DM. Step:     5
Re-using DM from previous geometries...
N DMs in history: 1
 DM extrapolation coefficients: 
1   1.00000
New DM after history re-use:
<dSpData2D:SpM extrapolated using coords
  <sparsity:sparsity for geom step 5
    nrows_g=36 nrows=8 sparsity=.2153 nnzs=279, refcount: 8>
  <dData2D:(temp array for extrapolation) n=279 m=1, refcount: 1>
refcount: 1>
Note: For starting DM, Qtot, Tr[D*S] =         14.00000000         14.06058669
No. of atoms with KB's overlaping orbs in proc 0. Max # of overlaps:       4      34
New grid distribution:   1
           1       1:   45    1:   23    1:   12
           2       1:   45    1:   23   13:   23
           3       1:   45    1:   23   24:   34
           4       1:   45    1:   23   35:   45
           5       1:   45   24:   45    1:   12
           6       1:   45   24:   45   13:   23
           7       1:   45   24:   45   24:   34
           8       1:   45   24:   45   35:   45

InitMesh: MESH =    90 x    90 x    90 =      729000
InitMesh: (bp) =    45 x    45 x    45 =       91125
InitMesh: Mesh cutoff (required, used) =   200.000   223.865 Ry
ExtMesh (bp) on 0 =   117 x    95 x    84 =      933660
New grid distribution:   2
           1       1:   14   15:   45    1:   14
           2       1:   13    1:   14   15:   45
           3      14:   45    1:   14   15:   45
           4       1:   13   15:   45   15:   45
           5      15:   45   15:   45    1:   14
           6      15:   45    1:   14    1:   14
           7      14:   45   15:   45   15:   45
           8       1:   14    1:   14    1:   14
New grid distribution:   3
           1      19:   45    1:   16    1:   16
           2       1:   17    1:   16   17:   45
           3       1:   16   17:   45   17:   45
           4      18:   45    1:   16   17:   45
           5      18:   45   17:   45    1:   16
           6       1:   17   17:   45    1:   16
           7      17:   45   17:   45   17:   45
           8       1:   18    1:   16    1:   16
Setting up quadratic distribution...
ExtMesh (bp) on 0 =    86 x   103 x    86 =      761788
PhiOnMesh: Number of (b)points on node 0 =                 6076
PhiOnMesh: nlist on node 0 =                55438

        iscf     Eharris(eV)        E_KS(eV)     FreeEng(eV)     dDmax    Ef(eV) dHmax(eV)
   scf:    1     -900.913631     -900.563259     -900.632567  0.605542 -7.218495  1.221391
   scf:    2     -900.566823     -900.565059     -900.634370  0.014812 -7.199799  1.166639
   scf:    3     -900.570323     -900.577415     -900.646618  0.375090 -6.736553  0.441531
   scf:    4     -900.580099     -900.583179     -900.652386  0.058369 -6.681888  0.138372
   scf:    5     -900.578844     -900.582001     -900.651286  0.096893 -6.551473  0.351422
   scf:    6     -900.582579     -900.582301     -900.651600  0.003775 -6.555697  0.335374
   scf:    7     -900.584142     -900.584437     -900.653744  0.108375 -6.660684  0.066768
   scf:    8     -900.584611     -900.584609     -900.653923  0.010954 -6.651803  0.006429
   scf:    9     -900.584603     -900.584607     -900.653922  0.004031 -6.647284  0.002006
   scf:   10     -900.584608     -900.584608     -900.653923  0.000279 -6.647205  0.000837

SCF Convergence by DM+H criterion
max |DM_out - DM_in|         :     0.0002785634
max |H_out - H_in|      (eV) :     0.0008365584
SCF cycle converged after 10 iterations

Using DM_out to compute the final energy and forces
No. of atoms with KB's overlaping orbs in proc 0. Max # of overlaps:       4      34

siesta: E_KS(eV) =             -900.5846

siesta: Atomic forces (eV/Ang):
----------------------------------------
   Tot    0.004499    0.000876   -0.000349
----------------------------------------
   Max    1.852769
   Res    0.882607    sqrt( Sum f_i^2 / 3N )
----------------------------------------
   Max    1.852769    constrained

Stress-tensor-Voigt (kbar):      -20.98       -0.54       -0.41       -0.51       -0.19       -0.30
(Free)E + p*V (eV/cell)     -896.0917
Target enthalpy (eV/cell)     -900.6539

siesta: Stress tensor (static) (eV/Ang**3):
        -0.002873   -0.000407   -0.000270
        -0.000407   -0.000091   -0.000109
        -0.000270   -0.000109   -0.000165

siesta: Pressure (static):          1.67164408  kBar

siesta: Stress tensor (total) (eV/Ang**3):
        -0.013095   -0.000318   -0.000189
        -0.000318   -0.000335   -0.000121
        -0.000189   -0.000121   -0.000256

siesta: Pressure (total):          7.30949834  kBar

siesta: Temp_ion =   13799.387 K

                     ====================================
                        Begin MD step =      6
                     ====================================

outcell: Unit cell vectors (Ang):
       10.000000    0.000000    0.000000
        0.000000   10.000000    0.000000
        0.000000    0.000000   10.000000

outcell: Cell vector modules (Ang)   :   10.000000   10.000000   10.000000
outcell: Cell angles (23,13,12) (deg):     90.0000     90.0000     90.0000
outcell: Cell volume (Ang**3)        :   1000.0000
 Folding of H and S is implicitly performed
<dSpData1D:S at geom step 6
  <sparsity:sparsity for geom step 6
    nrows_g=36 nrows=8 sparsity=.2176 nnzs=282, refcount: 7>
  <dData1D:(new from dSpData1D) n=282, refcount: 1>
refcount: 1>
New_DM. Step:     6
Re-using DM from previous geometries...
N DMs in history: 1
 DM extrapolation coefficients: 
1   1.00000
New DM after history re-use:
<dSpData2D:SpM extrapolated using coords
  <sparsity:sparsity for geom step 6
    nrows_g=36 nrows=8 sparsity=.2176 nnzs=282, refcount: 8>
  <dData2D:(temp array for extrapolation) n=282 m=1, refcount: 1>
refcount: 1>
Note: For starting DM, Qtot, Tr[D*S] =         14.00000000         13.97785121
No. of atoms with KB's overlaping orbs in proc 0. Max # of overlaps:       4      34
New grid distribution:   1
           1       1:   45    1:   23    1:   12
           2       1:   45    1:   23   13:   23
           3       1:   45    1:   23   24:   34
           4       1:   45    1:   23   35:   45
           5       1:   45   24:   45    1:   12
           6       1:   45   24:   45   13:   23
           7       1:   45   24:   45   24:   34
           8       1:   45   24:   45   35:   45

InitMesh: MESH =    90 x    90 x    90 =      729000
InitMesh: (bp) =    45 x    45 x    45 =       91125
InitMesh: Mesh cutoff (required, used) =   200.000   223.865 Ry
ExtMesh (bp) on 0 =   117 x    95 x    84 =      933660
New grid distribution:   2
           1       1:   14   15:   45    1:   14
           2       1:   14    1:   14   15:   45
           3      15:   45    1:   14   15:   45
           4       1:   13   15:   45   15:   45
           5      15:   45   15:   45    1:   14
           6      15:   45    1:   14    1:   14
           7      14:   45   15:   45   15:   45
           8       1:   14    1:   14    1:   14
New grid distribution:   3
           1      17:   45   17:   45    1:   16
           2      19:   45    1:   16    1:   16
           3      17:   45    1:   16   17:   45
           4       1:   16    1:   16   17:   45
           5       1:   16   17:   45    1:   16
           6       1:   18    1:   16    1:   16
           7      17:   45   17:   45   17:   45
           8       1:   16   17:   45   17:   45
Setting up quadratic distribution...
ExtMesh (bp) on 0 =    86 x   103 x    86 =      761788
PhiOnMesh: Number of (b)points on node 0 =                 6076
PhiOnMesh: nlist on node 0 =                55823

        iscf     Eharris(eV)        E_KS(eV)     FreeEng(eV)     dDmax    Ef(eV) dHmax(eV)
   scf:    1     -900.701848     -900.594047     -900.663308  0.440376 -6.621310  0.258122
   scf:    2     -900.594773     -900.594428     -900.663710  0.005674 -6.625004  0.242678
   scf:    3     -900.585248     -900.592858     -900.661926  0.092432 -6.685629  0.145643
   scf:    4     -900.589561     -900.595178     -900.664381  0.078722 -6.717457  0.062286
   scf:    5     -900.596353     -900.596424     -900.665739  0.038827 -6.743116  0.035507
   scf:    6     -900.596440     -900.596433     -900.665748  0.007236 -6.738219  0.022948
   scf:    7     -900.596465     -900.596455     -900.665769  0.004298 -6.731768  0.003604
   scf:    8     -900.596454     -900.596454     -900.665769  0.001437 -6.732956  0.004248
   scf:    9     -900.596453     -900.596454     -900.665768  0.001244 -6.733290  0.001092
   scf:   10     -900.596455     -900.596454     -900.665768  0.000136 -6.733389  0.000854

SCF Convergence by DM+H criterion
max |DM_out - DM_in|         :     0.0001356785
max |H_out - H_in|      (eV) :     0.0008543997
SCF cycle converged after 10 iterations

Using DM_out to compute the final energy and forces
No. of atoms with KB's overlaping orbs in proc 0. Max # of overlaps:       4      34

siesta: E_KS(eV) =             -900.5965

siesta: Atomic forces (eV/Ang):
----------------------------------------
   Tot   -0.004277   -0.000435    0.000160
----------------------------------------
   Max    0.916590
   Res    0.352376    sqrt( Sum f_i^2 / 3N )
----------------------------------------
   Max    0.916590    constrained

Stress-tensor-Voigt (kbar):      -18.93       -0.44       -0.16       -0.15       -0.03        0.21
(Free)E + p*V (eV/cell)     -896.6024
Target enthalpy (eV/cell)     -900.6658

siesta: Stress tensor (static) (eV/Ang**3):
        -0.001535   -0.000128    0.000018
        -0.000128   -0.000021   -0.000007
         0.000018   -0.000007   -0.000009

siesta: Pressure (static):          0.83605418  kBar

siesta: Stress tensor (total) (eV/Ang**3):
        -0.011816   -0.000092    0.000129
        -0.000092   -0.000274   -0.000018
         0.000129   -0.000018   -0.000101

siesta: Pressure (total):          6.51031033  kBar

siesta: Temp_ion =   13773.219 K

                     ====================================
                        Begin MD step =      7
                     ====================================

outcell: Unit cell vectors (Ang):
       10.000000    0.000000    0.000000
        0.000000   10.000000    0.000000
        0.000000    0.000000   10.000000

outcell: Cell vector modules (Ang)   :   10.000000   10.000000   10.000000
outcell: Cell angles (23,13,12) (deg):     90.0000     90.0000     90.0000
outcell: Cell volume (Ang**3)        :   1000.0000
 Folding of H and S is implicitly performed
<dSpData1D:S at geom step 7
  <sparsity:sparsity for geom step 7
    nrows_g=36 nrows=8 sparsity=.2199 nnzs=285, refcount: 7>
  <dData1D:(new from dSpData1D) n=285, refcount: 1>
refcount: 1>
New_DM. Step:     7
Re-using DM from previous geometries...
N DMs in history: 1
 DM extrapolation coefficients: 
1   1.00000
New DM after history re-use:
<dSpData2D:SpM extrapolated using coords
  <sparsity:sparsity for geom step 7
    nrows_g=36 nrows=8 sparsity=.2199 nnzs=285, refcount: 8>
  <dData2D:(temp array for extrapolation) n=285 m=1, refcount: 1>
refcount: 1>
Note: For starting DM, Qtot, Tr[D*S] =         14.00000000         13.94834459
No. of atoms with KB's overlaping orbs in proc 0. Max # of overlaps:       4      35
New grid distribution:   1
           1       1:   45    1:   23    1:   12
           2       1:   45    1:   23   13:   23
           3       1:   45    1:   23   24:   34
           4       1:   45    1:   23   35:   45
           5       1:   45   24:   45    1:   12
           6       1:   45   24:   45   13:   23
           7       1:   45   24:   45   24:   34
           8       1:   45   24:   45   35:   45

InitMesh: MESH =    90 x    90 x    90 =      729000
InitMesh: (bp) =    45 x    45 x    45 =       91125
InitMesh: Mesh cutoff (required, used) =   200.000   223.865 Ry
ExtMesh (bp) on 0 =   117 x    95 x    84 =      933660
New grid distribution:   2
           1       1:   14   15:   45    1:   14
           2       1:   14    1:   14   15:   45
           3      15:   45    1:   14   15:   45
           4       1:   13   15:   45   15:   45
           5      15:   45   15:   45    1:   14
           6      15:   45    1:   14    1:   14
           7      14:   45   15:   45   15:   45
           8       1:   14    1:   14    1:   14
New grid distribution:   3
           1      17:   45   17:   45    1:   16
           2      18:   45    1:   16    1:   16
           3      17:   45    1:   16   17:   45
           4       1:   16    1:   16   17:   45
           5       1:   16   17:   45    1:   16
           6       1:   17    1:   16    1:   16
           7      16:   45   17:   45   17:   45
           8       1:   15   17:   45   17:   45
Setting up quadratic distribution...
ExtMesh (bp) on 0 =    86 x   103 x    86 =      761788
PhiOnMesh: Number of (b)points on node 0 =                 6076
PhiOnMesh: nlist on node 0 =                56649

        iscf     Eharris(eV)        E_KS(eV)     FreeEng(eV)     dDmax    Ef(eV) dHmax(eV)
   scf:    1     -900.217657     -900.396833     -900.465507  2.232315 -6.538086  0.836719
   scf:    2     -900.403994     -900.400598     -900.469514  0.015097 -6.548924  0.780267
   scf:    3     -900.331342     -900.390277     -900.458015  0.175414 -6.701895  0.470997
   scf:    4     -900.340059     -900.400241     -900.468040  0.217878 -6.789875  0.213969
   scf:    5     -900.418841     -900.413331     -900.482459  0.101538 -6.884058  0.190041
   scf:    6     -900.414590     -900.415050     -900.484364  0.035160 -6.851820  0.057680
   scf:    7     -900.412870     -900.414560     -900.483754  0.026949 -6.843003  0.039152
   scf:    8     -900.415170     -900.415233     -900.484537  0.021420 -6.843797  0.006097
   scf:    9     -900.415232     -900.415235     -900.484538  0.001604 -6.843658  0.004762
   scf:   10     -900.415231     -900.415234     -900.484538  0.000845 -6.844119  0.004342
   scf:   11     -900.415232     -900.415233     -900.484538  0.000472 -6.844081  0.003615
   scf:   12     -900.415232     -900.415233     -900.484538  0.000803 -6.844033  0.002912
   scf:   13     -900.415236     -900.415234     -900.484539  0.000664 -6.844203  0.002773
   scf:   14     -900.415237     -900.415236     -900.484540  0.000466 -6.844476  0.001773
   scf:   15     -900.415237     -900.415236     -900.484540  0.000111 -6.844543  0.001477
   scf:   16     -900.415236     -900.415236     -900.484540  0.000387 -6.844897  0.000376
   scf:   17     -900.415236     -900.415236     -900.484540  0.000010 -6.844903  0.000370

SCF Convergence by DM+H criterion
max |DM_out - DM_in|         :     0.0000102889
max |H_out - H_in|      (eV) :     0.0003702507
SCF cycle converged after 17 iterations

Using DM_out to compute the final energy and forces
No. of atoms with KB's overlaping orbs in proc 0. Max # of overlaps:       4      35

siesta: E_KS(eV) =             -900.4152

siesta: Atomic forces (eV/Ang):
----------------------------------------
   Tot   -0.029045   -0.000444   -0.000169
----------------------------------------
   Max    1.303766
   Res    0.682892    sqrt( Sum f_i^2 / 3N )
----------------------------------------
   Max    1.303766    constrained

Stress-tensor-Voigt (kbar):      -17.95       -0.09        0.67        0.59        0.50        0.96
(Free)E + p*V (eV/cell)     -896.8711
Target enthalpy (eV/cell)     -900.4845

siesta: Stress tensor (static) (eV/Ang**3):
        -0.001019    0.000392    0.000501
         0.000392    0.000226    0.000355
         0.000501    0.000355    0.000557

siesta: Pressure (static):          0.12592195  kBar

siesta: Stress tensor (total) (eV/Ang**3):
        -0.011201    0.000369    0.000599
         0.000369   -0.000056    0.000314
         0.000599    0.000314    0.000416

siesta: Pressure (total):          5.78941795  kBar

siesta: Temp_ion =   13282.656 K

                     ====================================
                        Begin MD step =      8
                     ====================================

outcell: Unit cell vectors (Ang):
       10.000000    0.000000    0.000000
        0.000000   10.000000    0.000000
        0.000000    0.000000   10.000000

outcell: Cell vector modules (Ang)   :   10.000000   10.000000   10.000000
outcell: Cell angles (23,13,12) (deg):     90.0000     90.0000     90.0000
outcell: Cell volume (Ang**3)        :   1000.0000
<dSpData1D:S at geom step 8
  <sparsity:sparsity for geom step 8
    nrows_g=36 nrows=8 sparsity=.2222 nnzs=288, refcount: 7>
  <dData1D:(new from dSpData1D) n=288, refcount: 1>
refcount: 1>
New_DM. Step:     8
Re-using DM from previous geometries...
N DMs in history: 1
 DM extrapolation coefficients: 
1   1.00000
New DM after history re-use:
<dSpData2D:SpM extrapolated using coords
  <sparsity:sparsity for geom step 8
    nrows_g=36 nrows=8 sparsity=.2222 nnzs=288, refcount: 8>
  <dData2D:(temp array for extrapolation) n=288 m=1, refcount: 1>
refcount: 1>
Note: For starting DM, Qtot, Tr[D*S] =         14.00000000         13.97471331
No. of atoms with KB's overlaping orbs in proc 0. Max # of overlaps:       4      36
New grid distribution:   1
           1       1:   45    1:   23    1:   12
           2       1:   45    1:   23   13:   23
           3       1:   45    1:   23   24:   34
           4       1:   45    1:   23   35:   45
           5       1:   45   24:   45    1:   12
           6       1:   45   24:   45   13:   23
           7       1:   45   24:   45   24:   34
           8       1:   45   24:   45   35:   45

InitMesh: MESH =    90 x    90 x    90 =      729000
InitMesh: (bp) =    45 x    45 x    45 =       91125
InitMesh: Mesh cutoff (required, used) =   200.000   223.865 Ry
ExtMesh (bp) on 0 =   117 x    95 x    84 =      933660
New grid distribution:   2
           1      15:   45    1:   14    1:   14
           2       1:   13    1:   14   15:   45
           3      14:   45    1:   14   15:   45
           4       1:   13   15:   45   15:   45
           5      14:   45   15:   45    1:   14
           6       1:   13   15:   45    1:   14
           7      14:   45   15:   45   15:   45
           8       1:   14    1:   14    1:   14
New grid distribution:   3
           1      17:   45   17:   45    1:   16
           2      18:   45    1:   16    1:   16
           3      17:   45    1:   16   17:   45
           4       1:   16    1:   16   17:   45
           5       1:   16   17:   45    1:   16
           6       1:   17    1:   16    1:   16
           7      16:   45   17:   45   17:   45
           8       1:   15   17:   45   17:   45
Setting up quadratic distribution...
ExtMesh (bp) on 0 =   103 x    86 x    86 =      761788
PhiOnMesh: Number of (b)points on node 0 =                 6076
PhiOnMesh: nlist on node 0 =                56360

        iscf     Eharris(eV)        E_KS(eV)     FreeEng(eV)     dDmax    Ef(eV) dHmax(eV)
   scf:    1     -898.852143     -899.648304     -899.701370  2.459492 -7.047407  0.900547
   scf:    2     -899.731165     -899.691849     -899.749829  0.048563 -7.039748  0.812852
   scf:    3     -899.241756     -899.667747     -899.729601  0.464615 -6.973375  0.520969
   scf:    4     -899.071770     -899.406087     -899.444087  0.201868 -6.972598  0.788308
   scf:    5     -899.915516     -899.747510     -899.815001  0.310526 -6.947981  0.257143
   scf:    6     -898.195854     -899.146722     -899.147918  0.436310 -6.869162  0.892569
   scf:    7     -899.137578     -899.142437     -899.143152  0.024153 -6.831217  1.074341
   scf:    8     -897.315817     -899.321638     -899.323103  1.070477 -6.920837  0.911540
   scf:    9     -899.309968     -899.315824     -899.316185  0.014213 -6.932275  0.985540
   scf:   10     -899.561632     -899.443759     -899.467868  0.070706 -6.886537  0.653364
   scf:   11     -899.194109     -899.323275     -899.325183  0.066593 -6.903128  0.904093
   scf:   12     -899.320993     -899.322137     -899.323839  0.003275 -6.906853  0.924890
   scf:   13     -899.344232     -899.333220     -899.337501  0.005783 -6.906093  0.876125
   scf:   14     -898.642830     -899.601817     -899.657966  0.787540 -6.924209  0.388682
   scf:   15     -897.797206     -899.315351     -899.315584  0.788704 -6.888328  0.945343
   scf:   16     -899.312623     -899.314015     -899.314128  0.010236 -6.892345  0.973655
   scf:   17     -899.337146     -899.325953     -899.328281  0.020366 -6.899244  0.854708
   scf:   18     -899.356232     -899.341218     -899.347026  0.012358 -6.898104  0.796633
   scf:   19     -899.277820     -899.309904     -899.309918  0.035197 -6.900892  1.070256
   scf:   20     -899.925537     -899.770373     -899.836163  0.369175 -6.903268  0.165911
   scf:   21     -899.372282     -899.680986     -899.743526  0.357644 -6.913963  0.330762
   scf:   22     -897.901748     -899.303938     -899.303938  0.729487 -6.897488  1.186228
   scf:   23     -896.807214     -899.151658     -899.154059  1.086563 -6.905775  0.919752
   scf:   24     -899.126528     -899.139156     -899.139364  0.011741 -6.898115  1.021722
   scf:   25     -899.129319     -899.134267     -899.134288  0.008542 -6.893717  1.105574
   scf:   26     -898.877103     -899.666820     -899.720161  0.814468 -6.893185  0.330076
   scf:   27     -899.213683     -899.467141     -899.494740  0.195874 -6.900045  0.651127
   scf:   28     -899.510570     -899.489772     -899.520696  0.036021 -6.907528  0.639341
   scf:   29     -899.201840     -899.352252     -899.360561  0.071749 -6.900863  0.802871
   scf:   30     -899.469713     -899.758199     -899.826230  0.580761 -6.918804  0.158226
   scf:   31     -898.303343     -899.363235     -899.373774  0.573614 -6.906905  0.810295
   scf:   32     -899.643653     -899.511340     -899.545156  0.099870 -6.900860  0.595078
   scf:   33     -899.408302     -899.460845     -899.487506  0.033049 -6.902029  0.657210
   scf:   34     -899.487924     -899.474473     -899.503101  0.011546 -6.899857  0.630709
   scf:   35     -897.936823     -899.401400     -899.438312  0.861668 -6.909229  0.642200
   scf:   36     -899.276088     -899.339856     -899.369898  0.032791 -6.912546  0.681590
   scf:   37     -899.938850     -899.730729     -899.796915  0.308913 -6.903531  0.266918
   scf:   38     -899.141929     -899.636124     -899.685833  0.466519 -6.914796  0.465155
   scf:   39     -899.656663     -899.776063     -899.845042  0.369955 -6.912918  0.104029
   scf:   40     -899.015318     -899.567055     -899.608190  0.424433 -6.902170  0.527028
   scf:   41     -899.822904     -899.788108     -899.856504  0.311837 -6.903939  0.041606
   scf:   42     -899.744247     -899.777576     -899.846630  0.105717 -6.906945  0.110741
   scf:   43     -899.792253     -899.789702     -899.858814  0.071870 -6.904440  0.016089
   scf:   44     -899.789406     -899.789797     -899.858685  0.016448 -6.905240  0.011795
   scf:   45     -899.788216     -899.789458     -899.858637  0.019918 -6.907228  0.014626
   scf:   46     -899.789913     -899.789715     -899.858838  0.006046 -6.906774  0.006912
   scf:   47     -899.789952     -899.789877     -899.858916  0.006832 -6.904620  0.004367
   scf:   48     -899.789863     -899.789870     -899.858917  0.000757 -6.905528  0.002291
   scf:   49     -899.789868     -899.789870     -899.858917  0.000485 -6.905737  0.002554
   scf:   50     -899.789870     -899.789870     -899.858917  0.000135 -6.905785  0.002463
   scf:   51     -899.789876     -899.789873     -899.858917  0.000647 -6.905959  0.001352
   scf:   52     -899.789872     -899.789873     -899.858917  0.000140 -6.905981  0.001309
   scf:   53     -899.789866     -899.789869     -899.858917  0.000782 -6.906145  0.000723
   scf:   54     -899.789869     -899.789869     -899.858917  0.000067 -6.906195  0.000663

SCF Convergence by DM+H criterion
max |DM_out - DM_in|         :     0.0000673327
max |H_out - H_in|      (eV) :     0.0006627587
SCF cycle converged after 54 iterations

Using DM_out to compute the final energy and forces
No. of atoms with KB's overlaping orbs in proc 0. Max # of overlaps:       4      36

siesta: E_KS(eV) =             -899.7899

siesta: Atomic forces (eV/Ang):
----------------------------------------
   Tot   -0.064435   -0.000408    0.000176
----------------------------------------
   Max    2.951858
   Res    1.041429    sqrt( Sum f_i^2 / 3N )
----------------------------------------
   Max    2.951858    constrained

Stress-tensor-Voigt (kbar):      -23.32       -0.46        0.02        0.50        0.07        0.18
(Free)E + p*V (eV/cell)     -894.9139
Target enthalpy (eV/cell)     -899.8589

siesta: Stress tensor (static) (eV/Ang**3):
        -0.004644    0.000358    0.000019
         0.000359   -0.000035    0.000035
         0.000019    0.000035    0.000070

siesta: Pressure (static):          2.46104804  kBar

siesta: Stress tensor (total) (eV/Ang**3):
        -0.014557    0.000314    0.000112
         0.000314   -0.000288    0.000046
         0.000112    0.000046    0.000010

siesta: Pressure (total):          7.92282639  kBar

siesta: Temp_ion =   11495.188 K

                     ====================================
                        Begin MD step =      9
                     ====================================

outcell: Unit cell vectors (Ang):
       10.000000    0.000000    0.000000
        0.000000   10.000000    0.000000
        0.000000    0.000000   10.000000

outcell: Cell vector modules (Ang)   :   10.000000   10.000000   10.000000
outcell: Cell angles (23,13,12) (deg):     90.0000     90.0000     90.0000
outcell: Cell volume (Ang**3)        :   1000.0000
<dSpData1D:S at geom step 9
  <sparsity:sparsity for geom step 9
    nrows_g=36 nrows=8 sparsity=.2222 nnzs=288, refcount: 7>
  <dData1D:(new from dSpData1D) n=288, refcount: 1>
refcount: 1>
New_DM. Step:     9
Re-using DM from previous geometries...
N DMs in history: 1
 DM extrapolation coefficients: 
1   1.00000
New DM after history re-use:
<dSpData2D:SpM extrapolated using coords
  <sparsity:sparsity for geom step 9
    nrows_g=36 nrows=8 sparsity=.2222 nnzs=288, refcount: 8>
  <dData2D:(temp array for extrapolation) n=288 m=1, refcount: 1>
refcount: 1>
Note: For starting DM, Qtot, Tr[D*S] =         14.00000000         13.87761826
No. of atoms with KB's overlaping orbs in proc 0. Max # of overlaps:       4      36
New grid distribution:   1
           1       1:   45    1:   23    1:   12
           2       1:   45    1:   23   13:   23
           3       1:   45    1:   23   24:   34
           4       1:   45    1:   23   35:   45
           5       1:   45   24:   45    1:   12
           6       1:   45   24:   45   13:   23
           7       1:   45   24:   45   24:   34
           8       1:   45   24:   45   35:   45

InitMesh: MESH =    90 x    90 x    90 =      729000
InitMesh: (bp) =    45 x    45 x    45 =       91125
InitMesh: Mesh cutoff (required, used) =   200.000   223.865 Ry
ExtMesh (bp) on 0 =   117 x    95 x    84 =      933660
New grid distribution:   2
           1      14:   45    1:   14    1:   14
           2       1:   13    1:   14   15:   45
           3      14:   45    1:   14   15:   45
           4       1:   13   15:   45   15:   45
           5      14:   45   15:   45    1:   14
           6       1:   13   15:   45    1:   14
           7      14:   45   15:   45   15:   45
           8       1:   13    1:   14    1:   14
New grid distribution:   3
           1      17:   45    1:   16    1:   16
           2       1:   15    1:   16   17:   45
           3      16:   45    1:   16   17:   45
           4       1:   15   17:   45   17:   45
           5      16:   45   17:   45    1:   16
           6       1:   15   17:   45    1:   16
           7      16:   45   17:   45   17:   45
           8       1:   16    1:   16    1:   16
Setting up quadratic distribution...
ExtMesh (bp) on 0 =   104 x    86 x    86 =      769184
PhiOnMesh: Number of (b)points on node 0 =                 6272
PhiOnMesh: nlist on node 0 =                59304

        iscf     Eharris(eV)        E_KS(eV)     FreeEng(eV)     dDmax    Ef(eV) dHmax(eV)
   scf:    1     -894.567576     -897.642493     -897.644900  1.112228 -6.678566  1.867676
   scf:    2     -897.691736     -897.667466     -897.670899  0.032754 -6.667583  1.729361
   scf:    3     -897.682088     -897.936917     -898.002317  0.538771 -6.545679  1.446713
   scf:    4     -897.975343     -897.957784     -898.021829  0.044590 -6.550707  1.293092
   scf:    5     -897.225675     -897.806319     -897.836948  0.460065 -6.715182  1.460084
   scf:    6     -897.680235     -897.946825     -898.015443  0.462099 -6.626826  0.593320
   scf:    7     -897.088301     -897.596551     -897.654736  0.287297 -6.579638  1.666114
   scf:    8     -896.179171     -897.636903     -897.639863  0.812232 -6.903613  2.373303
   scf:    9     -898.032163     -897.908069     -897.945165  0.395633 -6.712387  0.538311
   scf:   10     -897.577326     -897.761654     -897.774725  0.199921 -6.817011  1.450388
   scf:   11     -897.773122     -897.769624     -897.781618  0.049720 -6.811580  1.498502
   scf:   12     -897.972923     -897.899336     -897.930093  0.187697 -6.707361  0.797477
   scf:   13     -897.771528     -897.838966     -897.858735  0.051699 -6.724026  1.148607
   scf:   14     -897.108880     -897.831640     -897.897538  0.632235 -6.713630  1.154299
   scf:   15     -897.488579     -897.928948     -897.966935  0.580711 -6.730735  0.810459
   scf:   16     -897.915577     -898.007906     -898.074742  0.302785 -6.730360  0.228983
   scf:   17     -898.021875     -898.020421     -898.083322  0.064220 -6.734035  0.016964
   scf:   18     -898.004942     -898.014940     -898.080607  0.040786 -6.736373  0.135204
   scf:   19     -898.001129     -898.017269     -898.076506  0.095817 -6.733951  0.186530
   scf:   20     -897.991904     -898.014376     -898.080127  0.100830 -6.737344  0.154249
   scf:   21     -898.022781     -898.019684     -898.083702  0.034902 -6.739458  0.027567
   scf:   22     -898.020715     -898.020250     -898.083843  0.007424 -6.739422  0.004609
   scf:   23     -898.020234     -898.020242     -898.083843  0.000485 -6.739372  0.004398
   scf:   24     -898.020250     -898.020246     -898.083843  0.000666 -6.739606  0.004810
   scf:   25     -898.020263     -898.020255     -898.083842  0.000434 -6.739791  0.004062
   scf:   26     -898.020295     -898.020275     -898.083845  0.000924 -6.740078  0.001683
   scf:   27     -898.020294     -898.020285     -898.083846  0.000208 -6.740078  0.001929
   scf:   28     -898.020371     -898.020328     -898.083846  0.000689 -6.739984  0.001607
   scf:   29     -898.020325     -898.020327     -898.083847  0.001111 -6.739707  0.000841
   scf:   30     -898.020326     -898.020326     -898.083847  0.000026 -6.739717  0.000777

SCF Convergence by DM+H criterion
max |DM_out - DM_in|         :     0.0000260750
max |H_out - H_in|      (eV) :     0.0007770251
SCF cycle converged after 30 iterations

Using DM_out to compute the final energy and forces
No. of atoms with KB's overlaping orbs in proc 0. Max # of overlaps:       4      36

siesta: E_KS(eV) =             -898.0203

siesta: Atomic forces (eV/Ang):
----------------------------------------
   Tot    0.008486    0.001314    0.001096
----------------------------------------
   Max    5.789771
   Res    2.646897    sqrt( Sum f_i^2 / 3N )
----------------------------------------
   Max    5.789771    constrained

Stress-tensor-Voigt (kbar):      -32.75       -1.94       -1.88        0.38       -0.99       -0.54
(Free)E + p*V (eV/cell)     -890.4768
Target enthalpy (eV/cell)     -898.0838

siesta: Stress tensor (static) (eV/Ang**3):
        -0.011847    0.000347   -0.000374
         0.000347   -0.000963   -0.000658
        -0.000374   -0.000658   -0.001160

siesta: Pressure (static):          7.46112907  kBar

siesta: Stress tensor (total) (eV/Ang**3):
        -0.020439    0.000238   -0.000337
         0.000238   -0.001209   -0.000617
        -0.000338   -0.000617   -0.001174

siesta: Pressure (total):         12.18790741  kBar

siesta: Temp_ion =    7290.074 K

                     ====================================
                        Begin MD step =     10
                     ====================================

outcell: Unit cell vectors (Ang):
       10.000000    0.000000    0.000000
        0.000000   10.000000    0.000000
        0.000000    0.000000   10.000000

outcell: Cell vector modules (Ang)   :   10.000000   10.000000   10.000000
outcell: Cell angles (23,13,12) (deg):     90.0000     90.0000     90.0000
outcell: Cell volume (Ang**3)        :   1000.0000
<dSpData1D:S at geom step 10
  <sparsity:sparsity for geom step 10
    nrows_g=36 nrows=8 sparsity=.2222 nnzs=288, refcount: 7>
[...]

outcell: Unit cell vectors (Ang):
       10.000000    0.000000    0.000000
        0.000000   10.000000    0.000000
        0.000000    0.000000   10.000000

outcell: Cell vector modules (Ang)   :   10.000000   10.000000   10.000000
outcell: Cell angles (23,13,12) (deg):     90.0000     90.0000     90.0000
outcell: Cell volume (Ang**3)        :   1000.0000
 Folding of H and S is implicitly performed
<dSpData1D:S at geom step 50
  <sparsity:sparsity for geom step 50
    nrows_g=36 nrows=8 sparsity=.1628 nnzs=211, refcount: 7>
  <dData1D:(new from dSpData1D) n=211, refcount: 1>
refcount: 1>
New_DM. Step:    50
Re-using DM from previous geometries...
N DMs in history: 1
 DM extrapolation coefficients: 
1   1.00000
New DM after history re-use:
<dSpData2D:SpM extrapolated using coords
  <sparsity:sparsity for geom step 50
    nrows_g=36 nrows=8 sparsity=.1628 nnzs=211, refcount: 8>
  <dData2D:(temp array for extrapolation) n=211 m=1, refcount: 1>
refcount: 1>
No. of atoms with KB's overlaping orbs in proc 0. Max # of overlaps:       3      26
New grid distribution:   1
           1       1:   45    1:   23    1:   12
           2       1:   45    1:   23   13:   23
           3       1:   45    1:   23   24:   34
           4       1:   45    1:   23   35:   45
           5       1:   45   24:   45    1:   12
           6       1:   45   24:   45   13:   23
           7       1:   45   24:   45   24:   34
           8       1:   45   24:   45   35:   45

InitMesh: MESH =    90 x    90 x    90 =      729000
InitMesh: (bp) =    45 x    45 x    45 =       91125
InitMesh: Mesh cutoff (required, used) =   200.000   223.865 Ry
ExtMesh (bp) on 0 =   117 x    95 x    84 =      933660
New grid distribution:   2
           1      11:   45    1:   33    1:   34
           2       1:   11   34:   45    1:   34
           3       1:   10    1:   32   35:   45
           4      11:   45    1:   32   35:   45
           5      12:   45   34:   45    1:   34
           6       1:   10    1:   33    1:   34
           7       1:   12   33:   45   35:   45
           8      13:   45   33:   45   35:   45
New grid distribution:   3
           1       1:   16   15:   45    1:   28
           2      21:   45    1:   14    1:   28
           3       1:   16    1:   25   29:   45
           4      17:   45    1:   25   29:   45
           5      17:   45   15:   45    1:   28
           6       1:   20    1:   14    1:   28
           7       1:   16   26:   45   29:   45
           8      17:   45   26:   45   29:   45
Setting up quadratic distribution...
ExtMesh (bp) on 0 =   107 x   105 x   106 =     1190910
PhiOnMesh: Number of (b)points on node 0 =                39270
PhiOnMesh: nlist on node 0 =                83476

        iscf     Eharris(eV)        E_KS(eV)     FreeEng(eV)     dDmax    Ef(eV) dHmax(eV)
   scf:    1     -672.093261     -832.050991     -832.050991 10.281739  2.204748 44.529910
   scf:    2     -837.372207     -834.726358     -834.726358  1.698390  1.739669 42.785318
   scf:    3     -696.422253     -848.232812     -848.232812 12.154326-17.887441 42.418742
   scf:    4     -845.296339     -879.761200     -879.768617  4.306358 -4.478325 17.822282
   scf:    5     -879.689676     -879.725133     -879.730588  0.010739 -4.479776 17.826515
   scf:    6     -813.404376     -865.344461     -865.344461  2.161311 -6.165311 23.517076
   scf:    7     -691.480239     -848.712473     -848.712473  2.470815 -3.859216 31.747558
   scf:    8     -848.848365     -848.780450     -848.780450  0.029969 -3.891682 31.651199
   scf:    9     -849.043322     -848.914485     -848.914485  0.081677 -4.033571 31.160743
   scf:   10     -847.878129     -848.403838     -848.403838  0.218637 -3.877918 32.146426
   scf:   11     -820.977812     -835.187032     -835.187032  6.613466  1.320606 42.128464
   scf:   12     -743.385814     -861.029265     -861.029265  9.823603 -8.432191 28.600366
   scf:   13     -866.648941     -863.887603     -863.887603  0.598847 -7.111788 25.199687
   scf:   14     -685.429297     -847.358728     -847.358728  3.596491 -2.866262 34.034515
   scf:   15     -847.642779     -847.500832     -847.500832  0.057755 -2.850736 33.930300
   scf:   16     -849.582844     -848.546114     -848.546114  0.568401 -3.277919 32.643148
   scf:   17     -774.312015     -867.289750     -867.289750  2.201659 -6.080053 21.877691
   scf:   18     -849.807861     -859.000570     -859.000570  1.650193-13.188612 34.256192
   scf:   19     -859.831303     -859.417141     -859.417141  0.074578-13.049098 34.069922
   scf:   20     -863.180418     -861.316541     -861.316541  0.275260-11.951064 31.418794
   scf:   21     -871.726403     -866.725758     -866.725758  1.141564 -6.431674 23.177955
   scf:   22     -866.611722     -866.668787     -866.668787  0.054971 -6.386680 23.044639
   scf:   23     -293.155246     -722.997769     -723.096124 16.997373  3.626181 65.822366
   scf:   24     -853.026154     -791.909689     -791.985910  0.891027  3.604283 55.049845
   scf:   25     -901.859270     -851.725990     -851.730975 15.355990 -4.090513 29.068062
   scf:   26     -771.516000     -866.119668     -866.119668  2.195941 -6.687376 23.756180
   scf:   27     -872.316851     -869.334514     -869.334514  1.092386 -4.331204 18.251074
   scf:   28     -701.796457     -850.085206     -850.085208  2.207593 -3.862994 29.994532
   scf:   29     -783.942777     -869.500264     -869.500264  2.207593 -4.212126 17.768174
   scf:   30     -868.011484     -868.763455     -868.763455  0.360206 -4.099982 19.215815
   scf:   31     -692.583347     -847.756698     -847.756698  2.318736 -2.877240 32.973149
   scf:   32     -855.128469     -851.489942     -851.499245  1.394889 -3.868693 29.505954
   scf:   33     -843.689016     -847.639273     -847.639273  1.390814 -2.880276 32.949857
   scf:   34     -849.709646     -848.679385     -848.679385  0.592721 -3.352165 31.818443
   scf:   35     -850.536661     -849.611671     -849.611671  0.481270 -3.768851 30.646591
   scf:   36     -780.444738     -868.630909     -868.630909  2.204803 -4.169216 19.455850
   scf:   37     -870.631874     -869.645922     -869.645922  0.461162 -4.146271 17.596780
   scf:   38     -869.888689     -869.767531     -869.767531  0.057916 -4.117781 17.355747
   scf:   39     -701.902139     -849.917901     -849.917901  2.206900 -3.830754 30.238031
   scf:   40     -855.132203     -852.546902     -852.561238  0.196659 -3.920485 28.971300
   scf:   41     -785.005851     -869.349252     -869.349252  2.185114 -4.301715 18.157521
   scf:   42     -870.362824     -869.860048     -869.860048  0.228988 -4.085653 17.227291
   scf:   43     -869.531834     -869.696360     -869.696360  0.074344 -4.128181 17.526739
   scf:   44     -869.314227     -869.505850     -869.505850  0.100916 -4.213759 17.898799
   scf:   45     -869.666616     -869.586329     -869.586329  0.049920 -4.156533 17.718503
   scf:   46     -870.913435     -870.252181     -870.254648  0.258919 -4.062574 16.677594
   scf:   47     -653.743972     -835.306662     -835.306662 10.948085  3.159430 44.768699
   scf:   48     -860.389375     -848.308486     -848.308486  9.706772 -3.130866 32.325781
   scf:   49     -850.960586     -849.643296     -849.643296  0.668826 -3.782051 30.605890
   scf:   50     -851.884315     -850.768156     -850.771462  0.334578 -3.918084 29.525254
   scf:   51     -791.627990     -873.968131     -873.999125  2.192009 -4.019533 14.624951
   scf:   52     -858.930124     -866.604226     -866.604226  1.362508 -6.229827 22.459356
   scf:   53     -864.975521     -865.795543     -865.795543  0.312277 -6.849374 24.179938
   scf:   54     -871.320203     -868.641551     -868.641551  0.897397 -4.203226 19.568668
   scf:   55     -869.956428     -869.304992     -869.304992  0.306383 -4.335176 18.271824
   scf:   56     -868.542390     -868.925719     -868.925719  0.158881 -4.004971 18.954379
   scf:   57     -640.668129     -832.033079     -832.033152 14.045952  3.362100 46.542277
   scf:   58     -860.059398     -846.543235     -846.543235 11.166658 -2.394414 34.415505
   scf:   59     -783.477906     -869.830669     -869.830669  2.472777 -4.093671 17.290198
   scf:   60     -870.198093     -870.014877     -870.014890  0.090628 -4.051491 16.944958
   scf:   61     -703.440882     -850.230374     -850.230448  2.208675 -3.896566 29.864715
   scf:   62     -784.391612     -869.564216     -869.564216  2.208678 -4.169347 17.752344
   scf:   63     -868.689260     -869.129518     -869.129518  0.190396 -4.410464 18.531175
   scf:   64     -870.220016     -869.679278     -869.679278  0.245925 -4.127566 17.567185
   scf:   65     -868.364818     -869.028286     -869.028286  0.293275 -3.952692 18.779366
   scf:   66     -870.125622     -869.581394     -869.581394  0.263248 -4.169777 17.704520
   scf:   67     -868.468116     -869.029198     -869.029198  0.246987 -3.946056 18.746987
   scf:   68     -649.517948     -834.758861     -834.758861 12.116835  3.122959 45.143042
   scf:   69     -863.831331     -849.939713     -849.939760 11.265096 -3.830162 30.291165
   scf:   70     -849.482871     -849.716645     -849.716645  0.198430 -3.807941 30.523855
   scf:   71     -892.306060     -887.102304     -887.221537  1.638124 -3.986766 10.380887
   scf:   72     -822.989769     -869.081128     -869.081128  1.778128 -3.927851 18.681022
   scf:   73     -702.055444     -850.272124     -850.272201  2.207761 -3.921885 29.808775
   scf:   74     -849.555527     -849.914387     -849.914387  0.150730 -3.846432 30.268522
   scf:   75     -807.277604     -878.538830     -878.599300  2.018533 -3.997898 13.966055
   scf:   76     -861.520955     -869.944787     -869.944793  0.234487 -4.071714 17.043633
   scf:   77     -869.410342     -869.678615     -869.678615  0.134728 -4.134105 17.556569
   scf:   78     -869.888165     -869.783557     -869.783557  0.055920 -4.109776 17.343294
   scf:   79     -869.937808     -869.860759     -869.860761  0.050584 -4.098917 17.167383
   scf:   80     -869.786743     -869.823770     -869.823771  0.017731 -4.109935 17.241452
   scf:   81     -680.324963     -843.674340     -843.674340  4.406418  0.583387 37.645104
   scf:   82     -854.719300     -849.305040     -849.305040  3.521084 -3.608246 31.076172
   scf:   83     -889.425081     -887.513878     -887.632286  1.721389 -3.984505 11.452567
   scf:   84     -776.048833     -850.119078     -850.119086  1.730481 -3.876371 29.998831
   scf:   85     -780.557886     -868.606571     -868.606571  2.207818 -4.122156 19.370338
   scf:   86     -868.919697     -868.763468     -868.763468  0.072702 -4.111376 19.262442
   scf:   87     -708.268686     -852.037215     -852.047882  2.199616 -3.944898 29.056889
   scf:   88     -784.017728     -869.179765     -869.179765  2.199553 -4.383309 18.432337
   scf:   89     -868.477780     -868.830449     -868.830449  0.156453 -4.052531 19.099748
   scf:   90     -869.571161     -869.202730     -869.202730  0.151798 -4.397395 18.461756
   scf:   91     -869.639487     -869.421781     -869.421781  0.174932 -4.287424 17.934375
   scf:   92     -869.696028     -869.559181     -869.559181  0.066205 -4.260789 17.676212
   scf:   93     -869.071384     -869.316145     -869.316145  0.117511 -4.338571 18.142468
   scf:   94     -649.507141     -834.583624     -834.583624 11.676266  3.142700 44.881118
   scf:   95     -860.336257     -847.913646     -847.913646  9.860599 -2.950712 32.814909
   scf:   96     -783.705659     -869.792936     -869.792936  2.185135 -4.136623 17.299664
   scf:   97     -869.621485     -869.707320     -869.707320  0.040678 -4.159712 17.463360
   scf:   98     -888.879653     -888.444721     -888.557231  1.341130 -3.995934 13.868749
   scf:   99     -838.764576     -870.530628     -870.535204  1.321570 -4.047852 16.457503
   scf:  100     -868.731679     -869.625242     -869.625242  0.257514 -4.184061 17.664991
   scf:  101     -870.531881     -870.081165     -870.081525  0.217987 -4.092351 16.830704
   scf:  102     -676.447071     -842.362051     -842.362051  5.210073  1.137456 38.986626
   scf:  103     -856.224608     -849.461488     -849.461488  4.533536 -3.739260 30.835709
   scf:  104     -781.408561     -870.483633     -870.487683  2.197707 -4.029805 16.469420
   scf:  105     -709.834752     -851.729925     -851.738993  2.180801 -3.943355 29.189660
   scf:  106     -851.315808     -851.523039     -851.530942  0.009516 -3.942330 29.265505
   scf:  107     -849.315135     -850.423546     -850.423900  0.044876 -3.960986 29.691744
   scf:  108     -710.109700     -849.204441     -849.204441  4.098037-21.363539 45.949779
   scf:  109     -868.069860     -858.948670     -858.948670  1.253531-12.947066 33.763726
   scf:  110     -874.197258     -866.986939     -866.986939  1.608282 -6.279719 22.550529
   scf:  111     -870.963877     -869.023388     -869.023388  0.752836 -3.971509 18.829238
   scf:  112     -867.628179     -868.332018     -868.332018  0.264526 -5.440412 20.004492
   scf:  113     -871.134856     -869.761755     -869.761755  0.622922 -4.141710 17.358184
   scf:  114     -634.738490     -829.625714     -829.630833 14.381815  3.405428 47.166058
   scf:  115     -863.442570     -847.216427     -847.216427 12.456504 -2.797949 33.358550
   scf:  116     -783.195275     -869.638387     -869.638387  2.180670 -4.166066 17.652299
   scf:  117     -869.321457     -869.480299     -869.480299  0.083209 -4.254961 17.967526
   scf:  118     -869.454978     -869.467641     -869.467641  0.011299 -4.262801 17.998809
   scf:  119     -870.116376     -869.793606     -869.793606  0.190101 -4.141289 17.334648
   scf:  120     -870.854001     -870.326102     -870.327671  0.207368 -4.048141 16.571388
   scf:  121     -744.253490     -860.757605     -860.807884  2.128141 -3.992478 26.020518
   scf:  122     -881.263189     -889.226241     -889.344980  1.579936 -4.033397 12.669960
   scf:  123     -834.919161     -869.281194     -869.281194  1.391137 -4.433113 18.387495
   scf:  124     -870.930092     -870.115594     -870.115927  0.373259 -4.012040 16.735887
   scf:  125     -868.694987     -869.411812     -869.411812  0.352399 -4.265987 18.087559
   scf:  126     -870.547645     -869.984317     -869.984455  0.322968 -4.069271 16.920103
   scf:  127     -869.709630     -869.847135     -869.847139  0.063403 -4.114882 17.179072
   scf:  128     -680.087113     -843.662008     -843.662008  4.905249  0.458315 37.689013
   scf:  129     -853.702592     -848.763953     -848.763953  3.612761 -3.396012 31.793988
   scf:  130     -783.180972     -869.429507     -869.429507  2.180617 -4.239907 18.001153
   scf:  131     -870.134866     -869.784040     -869.784041  0.208702 -4.146447 17.289490
   scf:  132     -870.142251     -869.963448     -869.963628  0.084733 -4.125852 16.982539
   scf:  133     -869.883625     -869.923538     -869.923615  0.015898 -4.142473 17.053930
   scf:  134     -869.782531     -869.853034     -869.853036  0.046081 -4.082703 17.152269
   scf:  135     -849.245680     -882.522747     -882.620594  2.101195 -4.054127 13.027379
   scf:  136     -760.569297     -841.264808     -841.264808  6.382215  1.939830 40.426110
   scf:  137     -855.409480     -848.506467     -848.506467  5.233343 -3.020640 32.133894
   scf:  138     -851.257045     -849.890573     -849.890573  0.737449 -3.790267 30.380187
   scf:  139     -782.186677     -869.003079     -869.003079  2.205217 -3.842806 18.775826
   scf:  140     -866.581601     -867.809911     -867.809911  0.480130 -5.719565 21.000490
   scf:  141     -867.763099     -867.786514     -867.786514  0.008447 -5.789893 21.082253
   scf:  142     -872.170665     -870.046643     -870.046792  1.036451 -4.058217 16.865707
   scf:  143     -872.331542     -871.185292     -871.196222  0.074808 -3.978090 16.028358
   scf:  144     -880.043630     -875.728109     -875.771846  0.165761 -3.959998 14.187441
   scf:  145     -674.102455     -838.508134     -838.508134  8.570042  2.220001 42.319763
   scf:  146     -857.792628     -848.438334     -848.438334  7.329364 -3.138476 32.208209
   scf:  147     -784.222835     -869.893779     -869.893780  2.186929 -4.047406 17.117109
   scf:  148     -703.126398     -850.197328     -850.197356  2.210042 -3.816706 29.970424
   scf:  149     -850.229504     -850.213419     -850.213457  0.006016 -3.828509 29.936382
   scf:  150     -847.195816     -848.713675     -848.713675  0.778272 -3.392079 31.739315
:!: SCF did not converge in maximum number of steps.

Using DM_out to compute the final energy and forces
No. of atoms with KB's overlaping orbs in proc 0. Max # of overlaps:       3      26

siesta: E_KS(eV) =             -848.7137

siesta: Atomic forces (eV/Ang):
----------------------------------------
   Tot   -0.000145    0.000470   -0.000895
----------------------------------------
   Max   21.641796
   Res   13.011485    sqrt( Sum f_i^2 / 3N )
----------------------------------------
   Max   21.641796    constrained

Stress-tensor-Voigt (kbar):        4.68       30.74        8.08      -13.41       15.71      -12.92
(Free)E + p*V (eV/cell)     -857.7639
Target enthalpy (eV/cell)     -848.7137

siesta: Stress tensor (static) (eV/Ang**3):
         0.009881   -0.012710   -0.012157
        -0.012800    0.029943    0.022063
        -0.012160    0.021914    0.022690

siesta: Pressure (static):        -33.38622959  kBar

siesta: Stress tensor (total) (eV/Ang**3):
         0.002920   -0.008283   -0.008059
        -0.008373    0.019187    0.009955
        -0.008062    0.009806    0.005044

siesta: Pressure (total):        -14.50019636  kBar

siesta: Temp_ion =   48403.418 K

siesta: Program's energy decomposition (eV):
siesta: Ebs     =      -370.823253
siesta: Eions   =      1592.294315
siesta: Ena     =       383.133120
siesta: Ekin    =       472.193782
siesta: Enl     =       -48.638885
siesta: Eso     =         0.000000
siesta: Eldau   =         0.000000
siesta: DEna    =        77.219020
siesta: DUscf   =        35.680677
siesta: DUext   =         0.000000
siesta: Exc     =      -176.007074
siesta: eta*DQ  =         0.000000
siesta: Emadel  =         0.000000
siesta: Emeta   =         0.000000
siesta: Emolmec =         0.000000
siesta: Ekinion =        18.769151
siesta: Eharris =      -828.426665
siesta: Etot    =      -829.944523
siesta: FreeEng =      -829.944523

siesta: Final energy (eV):
siesta:  Band Struct. =    -370.823253
siesta:       Kinetic =     472.193782
siesta:       Hartree =     539.834578
siesta:       Eldau   =       0.000000
siesta:       Eso     =       0.000000
siesta:    Ext. field =       0.000000
siesta:   Exch.-corr. =    -176.007074
siesta:  Ion-electron =   -1699.319392
siesta:       Ion-ion =      14.584432
siesta:       Ekinion =      18.769151
siesta:         Total =    -829.944523
siesta:         Fermi =      -3.392079

siesta: Atomic forces (eV/Ang):
siesta:      1  -12.017453   21.641796   20.212865
siesta:      2   11.818278  -21.461155  -20.238806
siesta:      3   -0.270089   -0.267231   -0.031785
siesta:      4    0.469119    0.087059    0.056831
siesta: ----------------------------------------
siesta:    Tot   -0.000145    0.000470   -0.000895

siesta: Stress tensor (static) (eV/Ang**3):
siesta:     0.009881   -0.012710   -0.012157
siesta:    -0.012800    0.029943    0.022063
siesta:    -0.012160    0.021914    0.022690

siesta: Cell volume =       1000.000000 Ang**3

siesta: Pressure (static):
siesta:                Solid            Molecule  Units
siesta:          -0.00022695         -0.00002538  Ry/Bohr**3
siesta:          -0.02083782         -0.00233030  eV/Ang**3
siesta:         -33.38622959         -3.73358676  kBar
(Free)E+ p_basis*V_orbitals  =        -846.505083
(Free)Eharris+ p_basis*V_orbitals  =        -844.987225

siesta: Electric dipole (a.u.)  =    0.000000    0.000000    0.000000
siesta: Electric dipole (Debye) =    0.000000    0.000000    0.000000
>> End of run:   6-MAY-2019  15:28:31
